! Touchstone file from project 440166_package_HFSS_gate_justified
! Exported from HFSS 2018.1.0
# GHZ S MA R 50.000000
! Terminal data exported
! Port[1] = Port1_T1
! Port[2] = Port2_T1
! Port[3] = Port3_T1
! Port[4] = Port4_T1
! Port[5] = Port5_T1
! Port[6] = Port6_T1
0                0.499931783996715 180              0.499968753232906 0                0.499970574038969 0                0.499970713174093 0                
                1.27232624424481E-06 180              1.26636024241227E-06 0                
                0.499968753924009 0                0.499773679126577 180              0.49990053268192 0                0.499900811111445 0                
                7.42686341852466E-07 0                7.61954455776406E-07 180              
                0.499970573838368 0                0.499900532696074 0                0.499771793393506 180              0.4998963488855  0                
                2.50325810762707E-07 0                2.59957070195162E-07 180              
                0.4999707126305  0                0.499900811366388 0                0.49989634852642 0                0.499772275788018 180              
                2.67841594176458E-07 0                2.76153737249611E-07 180              
                1.27225889857367E-06 180              7.42788886543087E-07 0                2.50415445256572E-07 0                2.67923845631075E-07 0                
                5.82849520013792E-05 0                0.999986168642408 0                
                1.2664683878812E-06 0                7.61879035332427E-07 180              2.59885169984388E-07 180              2.76090867633251E-07 180              
                0.999986166823874 0                2.87840565141168E-05 0                
! Port Impedance49.9999999767169 0                0                0                0                0                0                0                
!               0                0                0                0                
!               0                0                49.9999999767169 0                0                0                0                0                
!               0                0                0                0                
!               0                0                0                0                49.9999999767169 0                0                0                
!               0                0                0                0                
!               0                0                0                0                0                0                49.9999999767169 0                
!               0                0                0                0                
!               0                0                0                0                0                0                0                0                
!               49.9999999767169 0                0                0                
!               0                0                0                0                0                0                0                0                
!               0                0                49.9999999767169 0                

0.02             0.499856720549112 179.950717576729 0.499938018254869 -0.158279689527985 0.499950450656955 -0.144136379893099 0.499951291885676 -0.145077835026602 
                1.83467953612968E-05 -106.782145457295 5.75286999774325E-05 84.4773399456638 
                0.499938018254874 -0.158279689529882 0.49968220890808 179.954605642797 0.499862403032316 -0.142868529185113 0.499863900289879 -0.142434474009779 
                3.74185928348749E-05 85.0972463806562 3.87166535327829E-06 141.169366734621 
                0.499950450656933 -0.144136379884349 0.499862403032306 -0.142868529172761 0.499648228184547 179.910907815425 0.49981876726181 -0.200280266828018 
                2.9558928778876E-05 87.7864009607831 1.02114745789535E-05 95.3412191968686 
                0.499951291885676 -0.145077835028917 0.499863900289896 -0.142434474018388 0.499818767261798 -0.20028026682785 0.499650610288412 179.910400183266 
                3.01978338168944E-05 87.6611640385177 9.58837512011304E-06 96.2391093482897 
                1.83467953689828E-05 -106.782145449966 3.74185928251039E-05 85.0972463792922 2.95589287712016E-05 87.7864009607019 3.01978338045729E-05 87.6611640377993 
                0.00285507086397877 -89.0124614543538 0.999903405383088 -0.248251139534215 
                5.75286999676142E-05 84.4773399444129 3.87166534640037E-06 141.169366863039 1.02114745686181E-05 95.3412192008313 9.5883751109293E-06 96.2391093538435 
                0.99990340538311 -0.248251139543982 0.00285500463317138 -89.0730317742903 
! Port Impedance50               0                0                0                0                0                0                0                
!               0                0                0                0                
!               0                0                50               0                0                0                0                0                
!               0                0                0                0                
!               0                0                0                0                50               0                0                0                
!               0                0                0                0                
!               0                0                0                0                0                0                50               0                
!               0                0                0                0                
!               0                0                0                0                0                0                0                0                
!               50               0                0                0                
!               0                0                0                0                0                0                0                0                
!               0                0                50               0                

0.04             0.499844619097118 179.90661872158  0.499925069294212 -0.314238097288432 0.499940104540343 -0.286563897679254 0.499941247118274 -0.286639717698075 
                3.38320144978653E-05 -100.504944705305 0.000112881821432953 86.3767211753581 
                0.499925069294197 -0.314238097282326 0.499648686528338 179.916338993476 0.499844907760755 -0.283295568435677 0.499846101399916 -0.280691595179429 
                7.37803940535394E-05 86.8718380340674 6.61993916841124E-06 119.75357075193  
                0.499940104540347 -0.286563897684087 0.499844907760764 -0.283295568445424 0.49960200645893 179.831252086757 0.49979447206167 -0.393692845065603 
                5.86598047449318E-05 88.4676881357866 2.07864925367845E-05 92.1821672506925 
                0.499941247118274 -0.286639717699667 0.49984610139991 -0.280691595171356 0.499794472061672 -0.393692845056115 0.499604374076829 179.833780217245 
                5.98408523559076E-05 88.3730425415473 1.96163023487987E-05 92.7106244658722 
                3.38320144975023E-05 -100.504944705371 7.37803940515827E-05 86.8718380337618 5.86598047449334E-05 88.4676881357227 5.98408523530043E-05 88.37304254134   
                0.00570613480358428 -90.0683382682423 0.999857883936976 -0.49568651843664 
                0.000112881821436541 86.3767211754858 6.61993916792307E-06 119.753570753849 2.07864925379227E-05 92.1821672507308 1.96163023486433E-05 92.7106244660193 
                0.999857883936968 -0.495686518433387 0.00569107062176521 -89.7353344903611 
! Port Impedance50               0                0                0                0                0                0                0                
!               0                0                0                0                
!               0                0                50               0                0                0                0                0                
!               0                0                0                0                
!               0                0                0                0                50               0                0                0                
!               0                0                0                0                
!               0                0                0                0                0                0                50               0                
!               0                0                0                0                
!               0                0                0                0                0                0                0                0                
!               50               0                0                0                
!               0                0                0                0                0                0                0                0                
!               0                0                50               0                

0.06             0.499817735069973 179.86338937409  0.499908385255491 -0.469965711456456 0.499925220208438 -0.42875692525315 0.499926744841722 -0.428894609904553 
                4.92978073811896E-05 -97.7000194356405 0.000168150752238368 87.0088919191665 
                0.49990838525549 -0.469965711457877 0.499628257499113 179.878051177778 0.499826305643865 -0.423242936396791 0.499826989150435 -0.419328388156724 
                0.000110037673898163 87.4751481994329 9.72524661887546E-06 109.075565644827 
                0.49992522020844 -0.428756925256696 0.499826305643866 -0.423242936395935 0.499571908430511 179.751635464219 0.499764073030729 -0.586829489402096 
                8.77619492447131E-05 88.6408995402792 3.13653864864498E-05 90.6055538389849 
                0.499926744841721 -0.428894609906482 0.499826989150435 -0.419328388157557 0.499764073030729 -0.586829489405859 0.499574138101209 179.755414489379 
                8.94925056499113E-05 88.575364904559  2.96409930155064E-05 90.9430223533431 
                4.92978073810689E-05 -97.7000194356594 0.000110037673899521 87.4751481994756 8.77619492453372E-05 88.6408995402611 8.94925056514732E-05 88.5753649045761 
                0.00855067055757932 -90.2517066287253 0.999817127795566 -0.741547124213443 
                0.000168150752238724 87.0088919191717 9.72524661826794E-06 109.075565646266 3.13653864851088E-05 90.6055538390077 2.96409930148047E-05 90.9430223534148 
                0.999817127795566 -0.741547124217516 0.0085463639630601 -90.562907459839 
! Port Impedance50               0                0                0                0                0                0                0                
!               0                0                0                0                
!               0                0                50               0                0                0                0                0                
!               0                0                0                0                
!               0                0                0                0                50               0                0                0                
!               0                0                0                0                
!               0                0                0                0                0                0                50               0                
!               0                0                0                0                
!               0                0                0                0                0                0                0                0                
!               50               0                0                0                
!               0                0                0                0                0                0                0                0                
!               0                0                50               0                

0.08             0.499806503341819 179.820455039893 0.499894100601369 -0.625166043083931 0.499912411799716 -0.570436903136871 0.499914354480891 -0.570651051902379 
                6.47764176944341E-05 -96.0551211965463 0.000223402248882381 87.2577012516324 
                0.49989410060137 -0.625166043085179 0.499609138235061 179.840057414517 0.499808156740282 -0.562841293880331 0.499808286276905 -0.557582035198585 
                0.000146272150611878 87.7401131865029 1.2962792245211E-05 102.447985632379 
                0.499912411799714 -0.570436903133421 0.499808156740283 -0.562841293875991 0.499543125045027 179.672379497459 0.499743097754628 -0.779551405235024 
                0.000116860872412806 88.6619004969393 4.19546057680632E-05 89.4756200584193 
                0.499914354480888 -0.570651051901482 0.499808286276906 -0.557582035198567 0.499743097754629 -0.779551405230705 0.499545241943226 179.677428438988 
                0.000119148081819591 88.6137557647614 3.96704662003919E-05 89.7006305448554 
                6.47764176961661E-05 -96.055121196427 0.000146272150609816 87.7401131864865 0.000116860872409774 88.6619004969184 0.000119148081817289 88.6137557647401 
                0.0114090162767404 -90.5371056502153 0.999768920131369 -0.987365706472533 
                0.000223402248878553 87.2577012515925 1.29627922433999E-05 102.447985634408 4.19546057661651E-05 89.4756200584809 3.96704661982234E-05 89.7006305449317 
                0.999768920131371 -0.987365706473345 0.0113780148033351 -91.0350089758269 
! Port Impedance50               0                0                0                0                0                0                0                
!               0                0                0                0                
!               0                0                50               0                0                0                0                0                
!               0                0                0                0                
!               0                0                0                0                50               0                0                0                
!               0                0                0                0                
!               0                0                0                0                0                0                50               0                
!               0                0                0                0                
!               0                0                0                0                0                0                0                0                
!               50               0                0                0                
!               0                0                0                0                0                0                0                0                
!               0                0                50               0                

0.1              0.499800679761836 179.774836411345 0.499886019536047 -0.779464600879333 0.499905424104604 -0.711218956758193 0.499907551759776 -0.71607143365057 
                8.02426139892051E-05 -94.9615661261081 0.000278612206709246 87.3320337847261 
                0.499886019536046 -0.77946460087905 0.499591442324665 179.801508505007 0.499790965634173 -0.701276146556254 0.499790382343485 -0.699190807866443 
                0.000182480733568681 87.8468136119449 1.6284340977557E-05 97.7930866780249 
                0.499905424104602 -0.711218956757031 0.499790965634173 -0.701276146554114 0.499515498690914 179.592636890081 0.499725854098063 -0.976396556724427 
                0.000145949020386012 88.6112228348486 5.25584438217196E-05 88.5458804286025 
                0.499907551759775 -0.716071433651446 0.499790382343486 -0.699190807866778 0.499725854098062 -0.976396556724722 0.499518055921174 179.589864314631 
                0.000148794652670803 88.5693907328789 4.97142210335373E-05 88.6905345475277 
                8.02426139881911E-05 -94.9615661261858 0.000182480733569491 87.8468136119563 0.000145949020386249 88.6112228348588 0.000148794652671835 88.5693907328971 
                0.0142794857082768 -90.941019964688 0.999699461680547 -1.2310470363468 
                0.0002786122067099 87.3320337847323 1.62843409780706E-05 97.7930866778646 5.25584438218182E-05 88.5458804286255 4.97142210339159E-05 88.6905345475457 
                0.999699461680547 -1.2310470363468 0.0142783862653956 -91.2328680755038 
! Port Impedance50               0                0                0                0                0                0                0                
!               0                0                0                0                
!               0                0                50               0                0                0                0                0                
!               0                0                0                0                
!               0                0                0                0                50               0                0                0                
!               0                0                0                0                
!               0                0                0                0                0                0                50               0                
!               0                0                0                0                
!               0                0                0                0                0                0                0                0                
!               50               0                0                0                
!               0                0                0                0                0                0                0                0                
!               0                0                50               0                

0.12             0.499780337794196 179.733890752439 0.499874240833885 -0.9358243015723 0.499895898840269 -0.85411001842725 0.499898940076667 -0.85452302494385 
                9.57300919550968E-05 -94.1971333794278 0.000333907839894538 87.30265890267   
                0.499874240833884 -0.93582430157038 0.49956726215893 179.765729892307 0.499757895737905 -0.840953102071112 0.499757343614966 -0.83293892532028 
                0.000218698283036769 87.8694353999167 1.96078664750749E-05 94.1465599598961 
                0.49989589884027 -0.854110018427743 0.499757895737904 -0.840953102067983 0.499478150302104 179.515848414068 0.499690042750647 -1.16484039460801 
                0.000175040587937854 88.5274306983887 6.31539140434917E-05 87.6991661625878 
                0.499898940076666 -0.854523024944995 0.499757343614964 -0.832938925320486 0.499690042750645 -1.16484039460804 0.499480379943117 179.523463481206 
                0.000178444609875931 88.4973418295947 5.97500758631044E-05 87.7917513894783 
                9.57300919561003E-05 -94.1971333793713 0.000218698283037122 87.8694353999237 0.000175040587937589 88.527430698393  0.000178444609876373 88.4973418296014 
                0.0170755978049661 -91.2193580520174 0.999618488906857 -1.4788464313263 
                0.00033390783989444 87.3026589026752 1.9607866474725E-05 94.1465599600553 6.3153914043012E-05 87.6991661625899 5.97500758625133E-05 87.7917513894773 
                0.999618488906858 -1.47884643132752 0.0170883368717532 -91.377739797129 
! Port Impedance50               0                0                0                0                0                0                0                
!               0                0                0                0                
!               0                0                50               0                0                0                0                0                
!               0                0                0                0                
!               0                0                0                0                50               0                0                0                
!               0                0                0                0                
!               0                0                0                0                0                0                50               0                
!               0                0                0                0                
!               0                0                0                0                0                0                0                0                
!               50               0                0                0                
!               0                0                0                0                0                0                0                0                
!               0                0                50               0                

0.14             0.499772820143852 179.691662997314 0.499862036960339 -1.09092032465475 0.499885323076104 -0.995752239541475 0.499888855442708 -0.996278891356733 
                0.000111155999999628 -93.5702329448231 0.000389093956364116 87.2293599834952 
                0.49986203696034 -1.09092032465546 0.499549033916513 179.729228543854 0.499732900116209 -0.979212766967867 0.499732169648344 -0.969819310259512 
                0.000254860878654664 87.8514154429726 2.3022086486762E-05 91.0589953383609 
                0.499885323076104 -0.995752239543178 0.499732900116208 -0.97921276696651 0.499447472319226 179.438322142651 0.499665889105934 -1.35626832587626 
                0.000204108567167212 88.4251108459289 7.37693003691445E-05 86.9184502863089 
                0.49988885544271 -0.99627889135749 0.499732169648344 -0.969819310258684 0.499665889105933 -1.3562683258754 0.499449895727319 179.447218190075 
                0.00020806934453178 88.4011809044519 6.98083939969274E-05 86.9625323877921 
                0.000111156000000127 -93.5702329448178 0.000254860878655105 87.8514154429763 0.00020410856716781 88.4251108459363 0.000208069344531888 88.4011809044547 
                0.0199110508352343 -91.4691226130677 0.99953539417262 -1.72397789779864 
                0.000389093956363216 87.2293599834934 2.30220864864628E-05 91.0589953384627 7.37693003694338E-05 86.9184502863359 6.9808393997634E-05 86.9625323878253 
                0.999535394172622 -1.72397789780027 0.0199464339974961 -91.6415866693363 
! Port Impedance50               0                0                0                0                0                0                0                
!               0                0                0                0                
!               0                0                50               0                0                0                0                0                
!               0                0                0                0                
!               0                0                0                0                50               0                0                0                
!               0                0                0                0                
!               0                0                0                0                0                0                50               0                
!               0                0                0                0                
!               0                0                0                0                0                0                0                0                
!               50               0                0                0                
!               0                0                0                0                0                0                0                0                
!               0                0                50               0                

0.16             0.499771862972231 179.649110293185 0.499849501774503 -1.24587847258611 0.499874040015272 -1.13725760489908 0.499877964129082 -1.13789910580144 
                0.00012654592102042 -93.035718928914 0.000444191141663643 87.1280505080032 
                0.499849501774503 -1.24587847258744 0.499535304089727 179.69302504411  0.499711759295692 -1.11745564895296 0.499710872216323 -1.10668337487913 
                0.000290983384997443 87.8091164538555 2.65168191598275E-05 88.3065030288922 
                0.499874040015272 -1.13725760490065 0.499711759295692 -1.11745564895299 0.499421118989489 179.361071625193 0.499648498033703 -1.54764390147524 
                0.00023315800949436 88.3126762885374 8.44034735319825E-05 86.1720239973312 
                0.499877964129083 -1.13789910580329 0.499710872216324 -1.10668337487902 0.499648498033702 -1.54764390147578 0.49942377304428 179.371245220761 
                0.000237674622406416 88.2941917720946 7.98873771647922E-05 86.1723656069075 
                0.000126545921021141 -93.0357189288982 0.000290983384997913 87.8091164538607 0.000233158009494173 88.3126762885403 0.000237674622406535 88.2941917721061 
                0.0227474256266661 -91.7023722573588 0.999448792329932 -1.96892750968855 
                0.000444191141662646 87.1280505079981 2.65168191590013E-05 88.3065030288131 8.44034735306892E-05 86.1720239972766 7.98873771637727E-05 86.1723656068539 
                0.999448792329931 -1.96892750968814 0.0228023623521275 -91.9563785798858 
! Port Impedance50               0                0                0                0                0                0                0                
!               0                0                0                0                
!               0                0                50               0                0                0                0                0                
!               0                0                0                0                
!               0                0                0                0                50               0                0                0                
!               0                0                0                0                
!               0                0                0                0                0                0                50               0                
!               0                0                0                0                
!               0                0                0                0                0                0                0                0                
!               50               0                0                0                
!               0                0                0                0                0                0                0                0                
!               0                0                50               0                

0.18             0.499774080455747 179.606273551017 0.499836835254385 -1.40070807939392 0.499862411776505 -1.278631967818  0.499866672539429 -1.2793883867769 
                0.000141919047489248 -92.5650439933452 0.000499217539732506 87.0086750293982 
                0.499836835254384 -1.40070807939451 0.499525293702214 179.657058077207 0.49969217179249 -1.25573976687807 0.499691148245617 -1.24358853188935 
                0.000327076614728779 87.7502635438247 3.00865472850419E-05 85.7826353583352 
                0.499862411776505 -1.2786319678167 0.49969217179249 -1.2557397668778 0.499397841096487 179.284041129656 0.499634940018122 -1.73906644336308 
                0.000262192317455321 88.1933367820797 9.50553733735043E-05 85.4482902482979 
                0.499866672539428 -1.27938838677738 0.499691148245617 -1.24358853188952 0.49963494001812 -1.73906644336399 0.499400757482352 179.295488982675 
                0.000267264307848353 88.1797890954248 8.99855275191637E-05 85.4081801958813 
                0.000141919047488459 -92.5650439933427 0.000327076614729939 87.7502635438232 0.00026219231745618 88.1933367820729 0.00026726430784898 88.1797890954132 
                0.0255845096546606 -91.9293290431177 0.999356990046333 -2.21378098353729 
                0.000499217539733528 87.0086750293987 3.00865472857547E-05 85.7826353583351 9.50553733743222E-05 85.4482902483068 8.99855275203265E-05 85.4081801959147 
                0.999356990046333 -2.21378098353647 0.0256528797999418 -92.2866168209144 
! Port Impedance50               0                0                0                0                0                0                0                
!               0                0                0                0                
!               0                0                50               0                0                0                0                0                
!               0                0                0                0                
!               0                0                0                0                50               0                0                0                
!               0                0                0                0                
!               0                0                0                0                0                0                50               0                
!               0                0                0                0                
!               0                0                0                0                0                0                0                0                
!               50               0                0                0                
!               0                0                0                0                0                0                0                0                
!               0                0                50               0                
