! AWR Design Environment (10030) Mon Sep 14 15:29:14 2020
! Document = 'CMPA0530002S_Product_Model_Passive'
! nPorts: 5, nXvals: 571
! Port[1] = Gate Pack
! Port[2] = Drain Pack
! Port[3] = GBias Pack
! Port[4] = Drain Model
! Port[5] = Gate Model

# MHz S DB R 50
!Freq DBS11 AngS11 DBS12 AngS12 DBS13 AngS13 DBS14 AngS14 
!	DBS15 AngS15 
!	DBS21 AngS21 DBS22 AngS22 DBS23 AngS23 DBS24 AngS24 
!	DBS25 AngS25 
!	DBS31 AngS31 DBS32 AngS32 DBS33 AngS33 DBS34 AngS34 
!	DBS35 AngS35 
!	DBS41 AngS41 DBS42 AngS42 DBS43 AngS43 DBS44 AngS44 
!	DBS45 AngS45 
!	DBS51 AngS51 DBS52 AngS52 DBS53 AngS53 DBS54 AngS54 
!	DBS55 AngS55 
0 -16.195182 180 -307.83955 -0 -7.4813484 0 -307.83955 0 
	-2.7056196 0 
	-307.83955 -0 -161.08656 0 -313.15542 -0 -9.7072383e-08 0 
	-308.37767 -0 
	-7.4813484 -0 -313.15542 -0 -14.886667 0 -313.15542 0 
	-8.0195662 0 
	-307.83955 -0 -1.0900287e-07 -0 -313.15542 -0 -162.5562 0 
	-308.37767 -0 
	-2.7056196 0 -308.37767 -0 -8.0195662 0 -308.37767 0 
	-17.749526 180 
10 -16.188112 179.85296 -57.89283 80.993818 -7.4830717 -0.39829428 -57.89283 80.993819 
	-2.7072982 -0.3037389 
	-57.89283 80.993818 -54.960454 -98.238725 -63.208762 81.1265 -0.0022101727 -0.1013235 
	-58.43096 81.216746 
	-7.4830717 -0.39829428 -63.208762 81.1265 -14.88877 0.17964489 -63.208762 81.126501 
	-8.0213192 -0.15446189 
	-57.89283 80.993819 -0.0022101727 -0.10132337 -63.208762 81.126501 -54.960466 -98.238733 
	-58.43096 81.216748 
	-2.7072982 -0.3037389 -58.43096 81.216746 -8.0213192 -0.15446189 -58.43096 81.216748 
	-17.740313 -179.64438 
20 -16.166752 179.66056 -52.145856 72.67406 -7.4875166 -0.78792895 -52.145856 72.674061 
	-2.7116851 -0.59881285 
	-52.145856 72.67406 -49.213991 -105.80823 -57.461903 72.939417 -0.0081468621 -0.19102476 
	-52.684021 73.119911 
	-7.4875166 -0.78792895 -57.461903 72.939417 -14.894263 0.37087418 -57.461903 72.939419 
	-8.0258417 -0.30025036 
	-52.145856 72.674061 -0.0081468621 -0.19102463 -57.461903 72.939419 -49.213996 -105.80824 
	-52.684021 73.119912 
	-2.7116851 -0.59881285 -52.684021 73.119911 -8.0258417 -0.30025036 -52.684021 73.119912 
	-17.716313 -179.33693 
30 -16.13758 179.39316 -49.056565 64.845109 -7.4938552 -1.1630972 -49.056565 64.84511 
	-2.7180176 -0.87943127 
	-49.056565 64.845109 -46.124828 -112.87211 -54.372751 65.243143 -0.016604316 -0.26130707 
	-49.594792 65.513885 
	-7.4938552 -1.1630972 -54.372751 65.243143 -14.90212 0.58143947 -54.372751 65.243144 
	-8.032307 -0.43155029 
	-49.056565 64.84511 -0.016604316 -0.26130693 -54.372751 65.243144 -46.124832 -112.87211 
	-49.594792 65.513886 
	-2.7180176 -0.87943127 -49.594792 65.513885 -8.032307 -0.43155029 -49.594792 65.513886 
	-17.682078 -179.10906 
40 -16.105215 179.0471 -47.092781 57.842487 -7.5009116 -1.5228998 -47.092781 57.842488 
	-2.7250906 -1.144687 
	-47.092781 57.842487 -44.160106 -119.11146 -52.409135 58.373183 -0.02608741 -0.31101069 
	-47.631091 58.734175 
	-7.5009116 -1.5228998 -52.409135 58.373183 -14.910735 0.81254972 -52.409135 58.373184 
	-8.0395338 -0.54746996 
	-47.092781 57.842488 -0.02608741 -0.31101056 -52.409135 58.373184 -44.160109 -119.11147 
	-47.631091 58.734176 
	-2.7250906 -1.144687 -47.631091 58.734175 -8.0395338 -0.54746996 -47.631091 58.734176 
	-17.644165 -178.96441 
50 -16.074048 178.63207 -45.760669 51.661971 -7.507958 -1.8689905 -45.760669 51.661972 
	-2.7320685 -1.3962287 
	-45.760669 51.661971 -42.825765 -124.52723 -51.077244 52.325308 -0.035477326 -0.34234509 
	-46.299088 52.77656 
	-7.507958 -1.8689905 -51.077244 52.325308 -14.919047 1.0619774 -51.077244 52.325309 
	-8.0467275 -0.64966019 
	-45.760669 51.661972 -0.035477326 -0.34234495 -51.077244 52.32531 -42.825767 -124.52724 
	-46.299088 52.776561 
	-2.7320685 -1.3962287 -46.299088 52.77656 -8.0467275 -0.64966019 -46.299088 52.776561 
	-17.606779 -178.89269 
60 -16.047312 178.16539 -44.817636 46.270623 -7.5146049 -2.2046586 -44.817636 46.270624 
	-2.7385027 -1.6373415 
	-44.817636 46.270623 -41.880625 -129.14183 -50.134495 47.066582 -0.044096367 -0.35969158 
	-45.356191 47.608108 
	-7.5146049 -2.2046586 -50.134495 47.066582 -14.926494 1.3253431 -50.134495 47.066583 
	-8.0534536 -0.74140745 
	-44.817636 46.270624 -0.044096367 -0.35969145 -50.134495 47.066583 -41.880627 -129.14184 
	-45.356191 47.60811 
	-2.7385027 -1.6373415 -45.356191 47.608108 -8.0534536 -0.74140745 -45.356191 47.608109 
	-17.572073 -178.87541 
70 -16.024234 177.66291 -44.130965 41.590149 -7.5203711 -2.5329867 -44.130965 41.59015 
	-2.7440587 -1.8711104 
	-44.130965 41.590149 -41.191472 -133.03917 -49.448146 42.518696 -0.051658267 -0.36727101 
	-44.669686 43.150499 
	-7.5203711 -2.5329867 -49.448146 42.518696 -14.932516 1.5984058 -49.448146 42.518697 
	-8.0593443 -0.82583537 
	-44.130965 41.59015 -0.051658267 -0.36727088 -49.448146 42.518697 -41.191474 -133.03918 
	-44.669686 43.150501 
	-2.7440587 -1.8711104 -44.669686 43.150499 -8.0593443 -0.82583537 -44.669686 43.1505 
	-17.542085 -178.89537 
80 -16.00752 177.13828 -43.619828 37.523777 -7.5253828 -2.8565301 -43.619828 37.523778 
	-2.7489434 -2.1001492 
	-43.619828 37.523777 -40.676964 -136.32162 -48.937421 38.584974 -0.058124319 -0.36848309 
	-44.158872 39.307063 
	-7.5253828 -2.8565301 -48.937421 38.584974 -14.937186 1.8777133 -48.937421 38.584975 
	-8.0646528 -0.90549513 
	-43.619828 37.523778 -0.058124319 -0.36848296 -48.937421 38.584975 -40.676966 -136.32163 
	-44.158872 39.307064 
	-2.7489434 -2.1001492 -44.158872 39.307063 -8.0646528 -0.90549513 -44.158872 39.307064 
	-17.515907 -178.93904 
90 -15.993913 176.59986 -43.230128 33.977189 -7.52955 -3.1771927 -43.230128 33.97719 
	-2.7529812 -2.3263091 
	-43.230128 33.977189 -40.281415 -139.09424 -48.548168 35.170982 -0.063610601 -0.36589504 
	-43.769515 35.983356 
	-7.52955 -3.1771927 -48.548168 35.170982 -14.940481 2.1606499 -48.548168 35.170983 
	-8.0691545 -0.98232421 
	-43.230128 33.977191 -0.063610601 -0.36589491 -48.548168 35.170983 -40.281417 -139.09425 
	-43.769515 35.983357 
	-2.7529812 -2.3263091 -43.769515 35.983356 -8.0691545 -0.98232421 -43.769515 35.983357 
	-17.494081 -178.99631 
100 -15.985244 176.05497 -42.929487 30.870232 -7.5332486 -3.4962705 -42.929487 30.870233 
	-2.7564298 -2.5508999 
	-42.929487 30.870232 -39.974292 -141.42349 -48.24808 32.196618 -0.068201345 -0.3611603 
	-43.469226 33.09931 
	-7.5332486 -3.4962705 -48.24808 32.196618 -14.942864 2.4456421 -48.24808 32.196619 
	-8.0731358 -1.057531 
	-42.929487 30.870233 -0.068201345 -0.36116016 -48.24808 32.196619 -39.974293 -141.4235 
	-43.469226 33.099312 
	-2.7564298 -2.5508999 -43.469226 33.09931 -8.0731358 -1.057531 -43.469226 33.099311 
	-17.474998 -179.06106 
110 -15.979391 175.50672 -42.691691 28.127759 -7.5364131 -3.8146048 -42.691691 28.12776 
	-2.7593008 -2.7747512 
	-42.691691 28.127759 -39.729945 -143.38486 -48.0109 29.586692 -0.072052061 -0.35546495 
	-43.231799 30.579714 
	-7.5364131 -3.8146048 -48.0109 29.586692 -14.944275 2.7314279 -48.0109 29.586693 
	-8.07659 -1.1320246 
	-42.691691 28.12776 -0.072052061 -0.35546482 -48.0109 29.586693 -39.729947 -143.38486 
	-43.231799 30.579715 
	-2.7593008 -2.7747512 -43.231799 30.579714 -8.07659 -1.1320246 -43.231799 30.579715 
	-17.458704 -179.12873 
120 -15.975267 174.95717 -42.503749 25.700968 -7.538997 -4.1326934 -42.503749 25.700969 
	-2.7615888 -2.9983581 
	-42.503749 25.700968 -39.533855 -145.03448 -47.823607 27.292377 -0.075270036 -0.34947437 
	-43.044245 28.375728 
	-7.538997 -4.1326934 -47.823607 27.292377 -14.944669 3.0171873 -47.823607 27.292378 
	-8.0795022 -1.2063471 
	-42.503749 25.700969 -0.075270036 -0.34947423 -47.823607 27.292378 -39.533856 -145.03449 
	-43.044245 28.37573 
	-2.7615888 -2.9983581 -43.044245 28.375728 -8.0795022 -1.2063471 -43.044245 28.37573 
	-17.445273 -179.19666 
130 -15.974779 174.41018 -42.350491 23.528964 -7.5413677 -4.4507732 -42.350491 23.528965 
	-2.7636518 -3.2220638 
	-42.350491 23.528964 -39.371927 -146.4301 -47.671067 25.252903 -0.077993164 -0.34365206 
	-42.891454 26.426609 
	-7.5413677 -4.4507732 -47.671067 25.252903 -14.944376 3.3026569 -47.671067 25.252904 
	-8.0822647 -1.2806915 
	-42.350491 23.528965 -0.077993164 -0.34365192 -47.671067 25.252904 -39.371928 -146.43011 
	-42.891454 26.426611 
	-2.7636518 -3.2220638 -42.891454 26.426609 -8.0822647 -1.2806915 -42.891454 26.426611 
	-17.432745 -179.26388 
140 -15.975686 173.86447 -42.22415 21.570974 -7.5433622 -4.7690987 -42.22415 21.570975 
	-2.7653346 -3.4460374 
	-42.22415 21.570974 -39.235595 -147.61561 -47.545486 23.427383 -0.080318097 -0.33822112 
	-42.765612 24.691448 
	-7.5433622 -4.7690987 -47.545486 23.427383 -14.943315 3.5873866 -47.545486 23.427384 
	-8.0846946 -1.3553618 
	-42.22415 21.570975 -0.080318097 -0.33822099 -47.545486 23.427385 -39.235596 -147.61562 
	-42.765612 24.69145 
	-2.7653346 -3.4460374 -42.765612 24.691448 -8.0846946 -1.3553618 -42.765612 24.69145 
	-17.421999 -179.32899 
150 -15.977108 173.32012 -42.119796 19.798386 -7.5450233 -5.0877854 -42.119796 19.798387 
	-2.7666818 -3.6703767 
	-42.119796 19.798386 -39.121005 -148.61481 -47.441928 21.787177 -0.082289841 -0.33331332 
	-42.661778 23.141599 
	-7.5450233 -5.0877854 -47.441928 21.787177 -14.941569 3.8711933 -47.441928 21.787178 
	-8.0868306 -1.4304898 
	-42.119796 19.798388 -0.082289841 -0.33331319 -47.441928 21.787178 -39.121006 -148.61482 
	-42.661778 23.1416 
	-2.7666818 -3.6703767 -42.661778 23.141599 -8.0868306 -1.4304898 -42.661778 23.1416 
	-17.412819 -179.39145 
160 -15.98198 172.78019 -42.033274 18.189361 -7.546703 -5.4069056 -42.033274 18.189362 
	-2.7679242 -3.895201 
	-42.033274 18.189361 -39.022802 -149.45212 -47.356368 20.310638 -0.083973378 -0.32905578 
	-42.575809 21.755456 
	-7.546703 -5.4069056 -47.356368 20.310638 -14.939694 4.1544706 -47.356368 20.310639 
	-8.0889699 -1.5059343 
	-42.033274 18.189362 -0.083973378 -0.32905565 -47.356368 20.310639 -39.022803 -149.45213 
	-42.575809 21.755457 
	-2.7679242 -3.895201 -42.575809 21.755456 -8.0889699 -1.5059343 -42.575809 21.755457 
	-17.403759 -179.45181 
170 -15.987157 172.24183 -41.959654 16.713408 -7.5481407 -5.7264537 -41.959654 16.71341 
	-2.7689165 -4.1204571 
	-41.959654 16.713408 -38.937691 -150.15776 -47.283752 18.967078 -0.085422908 -0.32539089 
	-42.502762 20.502294 
	-7.5481407 -5.7264537 -47.283752 18.967078 -14.937264 4.4367291 -47.283752 18.967079 
	-8.0909046 -1.5819032 
	-41.959654 16.71341 -0.085422908 -0.32539075 -47.283752 18.967079 -38.937692 -150.15776 
	-42.502762 20.502296 
	-2.7689165 -4.1204571 -42.502762 20.502294 -8.0909046 -1.5819032 -42.502762 20.502295 
	-17.395812 -179.50928 
180 -15.992637 171.70506 -41.896655 15.351224 -7.5493424 -6.0464006 -41.896655 15.351225 
	-2.7696711 -4.3461199 
	-41.896655 15.351224 -38.862148 -150.7521 -47.221797 17.737197 -0.086688216 -0.32232759 
	-42.440368 19.362813 
	-7.5493424 -6.0464006 -47.221797 17.737197 -14.934286 4.7179393 -47.221797 17.737198 
	-8.0926463 -1.6583713 
	-41.896655 15.351226 -0.086688216 -0.32232746 -47.221797 17.737198 -38.862148 -150.75211 
	-42.440368 19.362814 
	-2.7696711 -4.3461199 -42.440368 19.362813 -8.0926463 -1.6583713 -42.440368 19.362814 
	-17.388912 -179.56401 
190 -16.000807 171.17295 -41.844579 14.104125 -7.5505809 -6.3668012 -41.844579 14.104126 
	-2.7704649 -4.57231 
	-41.844579 14.104125 -38.796152 -151.23058 -47.170838 16.622582 -0.087763938 -0.31997069 
	-42.389035 18.338635 
	-7.5505809 -6.3668012 -47.170838 16.622582 -14.931105 4.998457 -47.170838 16.622583 
	-8.0945093 -1.7351636 
	-41.844579 14.104126 -0.087763938 -0.31997056 -47.170838 16.622583 -38.796153 -151.23059 
	-42.389035 18.338636 
	-2.7704649 -4.57231 -42.389035 18.338635 -8.0945093 -1.7351636 -42.389035 18.338636 
	-17.381454 -179.6167 
200 -16.008807 170.64156 -41.797887 12.931196 -7.5516306 -6.687497 -41.797887 12.931197 
	-2.7710677 -4.7987996 
	-41.797887 12.931196 -38.734613 -151.64161 -47.1253 15.582017 -0.088741912 -0.31806288 
	-42.343109 17.388506 
	-7.5516306 -6.687497 -47.1253 15.582017 -14.927439 5.2780037 -47.1253 15.582018 
	-8.0962242 -1.81238 
	-41.797887 12.931197 -0.088741912 -0.31806275 -47.1253 15.582018 -38.734614 -151.64162 
	-42.343109 17.388508 
	-2.7710677 -4.7987996 -42.343109 17.388506 -8.0962242 -1.81238 -42.343109 17.388507 
	-17.374819 -179.6671 
210 -16.017097 170.11164 -41.757126 11.83506 -7.5525477 -7.0085299 -41.757126 11.835061 
	-2.7715379 -5.0256459 
	-41.757126 11.83506 -38.6788 -151.97725 -47.085736 14.618178 -0.089601726 -0.31666493 
	-42.303137 16.515104 
	-7.5525477 -7.0085299 -47.085736 14.618178 -14.923363 5.5565904 -47.085736 14.618179 
	-8.0978625 -1.8900122 
	-41.757126 11.835061 -0.089601726 -0.3166648 -47.085736 14.618179 -38.678801 -151.97726 
	-42.303137 16.515106 
	-2.7715379 -5.0256459 -42.303137 16.515104 -8.0978625 -1.8900122 -42.303137 16.515105 
	-17.368733 -179.7152 
220 -16.027695 169.58467 -41.72157 10.805131 -7.5535246 -7.3298783 -41.72157 10.805132 
	-2.7720773 -5.2528835 
	-41.72157 10.805131 -38.628878 -152.2417 -47.051449 13.720716 -0.090344327 -0.3157518 
	-42.268405 15.708091 
	-7.5535246 -7.3298783 -47.051449 13.720716 -14.919118 5.8346613 -47.051449 13.720717 
	-8.0996782 -1.9678127 
	-41.72157 10.805132 -0.090344327 -0.31575167 -47.051449 13.720718 -38.628878 -152.24171 
	-42.268405 15.708092 
	-2.7720773 -5.2528835 -42.268405 15.708091 -8.0996782 -1.9678127 -42.268405 15.708092 
	-17.362267 -179.76197 
230 -16.038082 169.05858 -41.691156 9.8448346 -7.5543223 -7.6515632 -41.691156 9.8448357 
	-2.7724352 -5.4804669 
	-41.691156 9.8448346 -38.581976 -152.44397 -47.022342 12.892747 -0.091006448 -0.31535404 
	-42.238839 14.970567 
	-7.5543223 -7.6515632 -47.022342 12.892747 -14.914412 6.1115824 -47.022342 12.892749 
	-8.1013561 -2.0461021 
	-41.691156 9.8448358 -0.091006448 -0.3153539 -47.022342 12.892749 -38.581977 -152.44398 
	-42.238839 14.970569 
	-2.7724352 -5.4804669 -42.238839 14.970567 -8.1013561 -2.0461021 -42.238839 14.970569 
	-17.356572 -179.80617 
240 -16.048814 168.53379 -41.664051 8.9360478 -7.5550814 -7.9735016 -41.664051 8.9360489 
	-2.7727153 -5.7083188 
	-41.664051 8.9360478 -38.536599 -152.59933 -46.996619 12.116259 -0.091616298 -0.31537956 
	-42.212638 14.284531 
	-7.5550814 -7.9735016 -46.996619 12.116259 -14.909406 6.3877103 -46.996619 12.11626 
	-8.1030308 -2.1246815 
	-41.664051 8.9360491 -0.091616298 -0.31537942 -46.996619 12.11626 -38.5366 -152.59934 
	-42.212638 14.284532 
	-2.7727153 -5.7083188 -42.212638 14.284531 -8.1030308 -2.1246815 -42.212638 14.284532 
	-17.350881 -179.84872 
250 -16.061142 168.01147 -41.639907 8.0731855 -7.5559707 -8.2957089 -41.639907 8.0731866 
	-2.7730245 -5.9364597 
	-41.639907 8.0731855 -38.49505 -152.7064 -46.973996 11.38585 -0.092147867 -0.31576816 
	-42.189514 13.644598 
	-7.5559707 -8.2957089 -46.973996 11.38585 -14.904284 6.6634183 -46.973996 11.385851 
	-8.104861 -2.2033673 
	-41.639907 8.0731868 -0.092147867 -0.31576802 -46.973996 11.385851 -38.49505 -152.70641 
	-42.189514 13.6446 
	-2.7730245 -5.9364597 -42.189514 13.644598 -8.104861 -2.2033673 -42.189514 13.644599 
	-17.344253 -179.89042 
260 -16.073067 167.48932 -41.618238 7.251967 -7.5567207 -8.618112 -41.618238 7.2519681 
	-2.7731923 -6.1648025 
	-41.618238 7.251967 -38.455558 -152.77413 -46.953887 10.696928 -0.092626808 -0.31649763 
	-42.168888 13.04615 
	-7.5567207 -8.618112 -46.953887 10.696928 -14.898756 6.9381052 -46.953887 10.696929 
	-8.106594 -2.2824177 
	-41.618238 7.2519682 -0.092626808 -0.31649749 -46.953887 10.696929 -38.455559 -152.77414 
	-42.168888 13.046151 
	-2.7731923 -6.1648025 -42.168888 13.04615 -8.106594 -2.2824177 -42.168888 13.046151 
	-17.338192 -179.93019 
270 -16.085766 166.96827 -41.598854 6.4682872 -7.5574644 -8.9407569 -41.598854 6.4682883 
	-2.7733297 -6.3934128 
	-41.598854 6.4682872 -38.416922 -152.8091 -46.936117 10.045599 -0.093071083 -0.31754766 
	-42.150577 12.485297 
	-7.5574644 -8.9407569 -46.936117 10.045599 -14.892955 7.2120814 -46.936117 10.0456 
	-8.1083142 -2.3616517 
	-41.598854 6.4682885 -0.093071083 -0.31754753 -46.936117 10.0456 -38.416923 -152.80911 
	-42.150577 12.485298 
	-2.7733297 -6.3934128 -42.150577 12.485297 -8.1083142 -2.3616517 -42.150577 12.485298 
	-17.332267 -179.96878 
280 -16.099983 166.4488 -41.581776 5.7219153 -7.5582877 -9.263695 -41.581776 5.7219165 
	-2.7735086 -6.6223526 
	-41.581776 5.7219153 -38.379565 -152.80962 -46.920719 9.4317643 -0.093474249 -0.31892555 
	-42.134606 11.961944 
	-7.5582877 -9.263695 -46.920719 9.4317643 -14.886966 7.4855293 -46.920719 9.4317654 
	-8.1100767 -2.4409759 
	-41.581776 5.7219166 -0.093474249 -0.31892541 -46.920719 9.4317655 -38.379566 -152.80962 
	-42.134606 11.961945 
	-2.7735086 -6.6223526 -42.134606 11.961944 -8.1100767 -2.4409759 -42.134606 11.961945 
	-17.326197 179.99345 
290 -16.113757 165.92945 -41.567073 5.0163914 -7.5589806 -9.5868324 -41.567073 5.0163926 
	-2.7735549 -6.8514985 
	-41.567073 5.0163914 -38.344238 -152.76968 -46.907735 8.8586015 -0.09382248 -0.32067266 
	-42.121034 11.47926 
	-7.5589806 -9.5868324 -46.907735 8.8586015 -14.880593 7.757864 -46.907735 8.8586027 
	-8.1117519 -2.5206868 
	-41.567073 5.0163927 -0.09382248 -0.32067252 -46.907735 8.8586028 -38.344239 -152.76968 
	-42.121034 11.479262 
	-2.7735549 -6.8514985 -42.121034 11.47926 -8.1117519 -2.5206868 -42.121034 11.479262 
	-17.320643 179.95769 
300 -16.128372 165.41009 -41.551796 4.3123833 -7.5596716 -9.9099526 -41.551796 4.3123844 
	-2.7736265 -7.0806751 
	-41.551796 4.3123833 -38.309056 -152.73009 -46.894238 8.2870715 -0.094170672 -0.32241925 
	-42.106949 10.998202 
	-7.5596716 -9.9099526 -46.894238 8.2870715 -14.874023 8.0299228 -46.894238 8.2870726 
	-8.1135572 -2.6002836 
	-41.551796 4.3123846 -0.094170672 -0.32241912 -46.894238 8.2870728 -38.309057 -152.7301 
	-42.106949 10.998203 
	-2.7736265 -7.0806751 -42.106949 10.998202 -8.1135572 -2.6002836 -42.106949 10.998203 
	-17.314518 179.92169 
310 -16.144151 164.89245 -41.539942 3.6606345 -7.5603196 -10.233427 -41.539942 3.6606357 
	-2.773684 -7.3102598 
	-41.539942 3.6606345 -38.275169 -152.64136 -46.884226 7.7679286 -0.094463312 -0.32466268 
	-42.096349 10.569522 
	-7.5603196 -10.233427 -46.884226 7.7679286 -14.867228 8.3011724 -46.884226 7.7679298 
	-8.115458 -2.680133 
	-41.539942 3.6606358 -0.094463312 -0.32466254 -46.884226 7.7679299 -38.27517 -152.64136 
	-42.096349 10.569524 
	-2.773684 -7.3102598 -42.096349 10.569522 -8.115458 -2.680133 -42.096349 10.569524 
	-17.307997 179.88729 
320 -16.159346 164.37371 -41.527922 3.0152079 -7.5608652 -10.556855 -41.527922 3.015209 
	-2.7736368 -7.5398115 
	-41.527922 3.0152079 -38.241513 -152.54827 -46.874088 7.2549137 -0.094750228 -0.3269568 
	-42.085608 10.146967 
	-7.5608652 -10.556855 -46.874088 7.2549137 -14.86008 8.5715626 -46.874088 7.2549149 
	-8.1172999 -2.7601478 
	-41.527922 3.0152091 -0.094750228 -0.32695667 -46.874088 7.254915 -38.241514 -152.54828 
	-42.085608 10.146969 
	-2.7736368 -7.5398115 -42.085608 10.146967 -8.1172999 -2.7601478 -42.085608 10.146969 
	-17.30185 179.85378 
330 -16.175968 163.85616 -41.517441 2.3978269 -7.5615041 -10.880555 -41.517441 2.3978281 
	-2.7736007 -7.7696278 
	-41.517441 2.3978269 -38.208171 -152.43076 -46.865615 6.7701864 -0.095012711 -0.32951937 
	-42.076511 9.7526941 
	-7.5615041 -10.880555 -46.865615 6.7701864 -14.852889 8.8416706 -46.865615 6.7701875 
	-8.1193146 -2.8401942 
	-41.517441 2.3978282 -0.095012711 -0.32951923 -46.865615 6.7701877 -38.208171 -152.43077 
	-42.076511 9.7526954 
	-2.7736007 -7.7696278 -42.076511 9.7526941 -8.1193146 -2.8401942 -42.076511 9.7526953 
	-17.29522 179.82077 
340 -16.193387 163.33888 -41.507915 1.7998148 -7.5621763 -11.204415 -41.507915 1.7998159 
	-2.7735405 -7.9996011 
	-41.507915 1.7998148 -38.175059 -152.29695 -46.858197 6.3049241 -0.095258374 -0.33226611 
	-42.068448 9.3778819 
	-7.5621763 -11.204415 -46.858197 6.3049241 -14.845562 9.1113223 -46.858197 6.3049253 
	-8.1214315 -2.9203093 
	-41.507915 1.799816 -0.095258374 -0.33226597 -46.858197 6.3049254 -38.17506 -152.29696 
	-42.068448 9.3778832 
	-2.7735405 -7.9996011 -42.068448 9.3778819 -8.1214315 -2.9203093 -42.068448 9.3778831 
	-17.288366 179.78836 
350 -16.210225 162.8206 -41.498633 1.2131579 -7.5627452 -11.528265 -41.498633 1.2131591 
	-2.7733751 -8.2295735 
	-41.498633 1.2131579 -38.142029 -152.15451 -46.851063 5.8508035 -0.095495354 -0.33511922 
	-42.060655 9.0142088 
	-7.5627452 -11.528265 -46.851063 5.8508035 -14.837891 9.3800056 -46.851063 5.8508047 
	-8.1234899 -3.0006436 
	-41.498633 1.2131592 -0.095495354 -0.33511909 -46.851063 5.8508048 -38.14203 -152.15452 
	-42.060655 9.0142101 
	-2.7733751 -8.2295735 -42.060655 9.0142088 -8.1234899 -3.0006436 -42.060655 9.01421 
	-17.281887 179.75711 
360 -16.22882 162.30376 -41.490889 0.65432672 -7.5633865 -11.852453 -41.490889 0.65432786 
	-2.7732702 -8.4599352 
	-41.490889 0.65432672 -38.109061 -151.98822 -46.845647 5.4248537 -0.095709871 -0.33824882 
	-42.054478 8.6786923 
	-7.5633865 -11.852453 -46.845647 5.4248537 -14.830015 9.6482517 -46.845647 5.4248548 
	-8.1256409 -3.0809172 
	-41.490889 0.654328 -0.095709871 -0.33824869 -46.845647 5.4248549 -38.109062 -151.98823 
	-42.054478 8.6786935 
	-2.7732702 -8.4599352 -42.054478 8.6786923 -8.1256409 -3.0809172 -42.054478 8.6786934 
	-17.274805 179.72601 
370 -16.247804 161.78616 -41.48279 0.096034208 -7.5640078 -12.176643 -41.48279 0.096035354 
	-2.7731392 -8.6903285 
	-41.48279 0.096034208 -38.076148 -151.82317 -46.839979 4.9994581 -0.095924328 -0.34137864 
	-42.047995 8.3437222 
	-7.5640078 -12.176643 -46.839979 4.9994581 -14.821861 9.9158986 -46.839979 4.9994592 
	-8.127807 -3.161162 
	-41.48279 0.096035488 -0.095924328 -0.3413785 -46.839979 4.9994593 -38.076149 -151.82317 
	-42.047995 8.3437235 
	-2.7731392 -8.6903285 -42.047995 8.3437222 -8.127807 -3.161162 -42.047995 8.3437233 
	-17.267635 179.69501 
380 -16.266302 161.26837 -41.476451 -0.42792573 -7.564507 -12.500992 -41.476451 -0.42792458 
	-2.772884 -8.9208957 
	-41.476451 -0.42792573 -38.043733 -151.62636 -46.836111 4.6081613 -0.096103389 -0.34485732 
	-42.043298 8.0428477 
	-7.564507 -12.500992 -46.836111 4.6081613 -14.813361 10.182235 -46.836111 4.6081625 
	-8.129897 -3.2418197 
	-41.476451 -0.42792444 -0.096103389 -0.34485719 -46.836111 4.6081626 -38.043734 -151.62637 
	-42.043298 8.042849 
	-2.772884 -8.9208957 -42.043298 8.0428477 -8.129897 -3.2418197 -42.043298 8.0428489 
	-17.260926 179.66612 
390 -16.28671 160.7513 -41.470048 -0.9504344 -7.5651734 -12.825561 -41.470048 -0.95043325 
	-2.772728 -9.1516818 
	-41.470048 -0.9504344 -38.011352 -151.42972 -46.832264 4.2188218 -0.096281044 -0.34835003 
	-42.038631 7.7438785 
	-7.5651734 -12.825561 -46.832264 4.2188218 -14.804898 10.448851 -46.832264 4.2188229 
	-8.1321781 -3.3221724 
	-41.470048 -0.95043312 -0.096281044 -0.34834989 -46.832264 4.2188231 -38.011353 -151.42972 
	-42.038631 7.7438798 
	-2.772728 -9.1516818 -42.038631 7.7438785 -8.1321781 -3.3221724 -42.038631 7.7438796 
	-17.253401 179.6362 
400 -16.307131 160.23319 -41.463485 -1.4703166 -7.5658033 -13.150121 -41.463485 -1.4703154 
	-2.7725174 -9.3824664 
	-41.463485 -1.4703166 -37.978982 -151.23255 -46.828309 3.8320419 -0.096456906 -0.35186529 
	-42.033846 7.4474546 
	-7.5658033 -13.150121 -46.828309 3.8320419 -14.796194 10.714773 -46.828309 3.832043 
	-8.1344641 -3.4025888 
	-41.463485 -1.4703153 -0.096456906 -0.35186516 -46.828309 3.8320431 -37.978983 -151.23256 
	-42.033846 7.4474559 
	-2.7725174 -9.3824664 -42.033846 7.4474546 -8.1344641 -3.4025888 -42.033846 7.4474558 
	-17.245948 179.60676 
410 -16.327048 159.71464 -41.45839 -1.9600385 -7.5663142 -13.474799 -41.45839 -1.9600373 
	-2.772186 -9.6133834 
	-41.45839 -1.9600385 -37.946467 -151.01059 -46.825866 3.4751695 -0.096609578 -0.35568074 
	-42.030559 7.1809353 
	-7.5663142 -13.474799 -46.825866 3.4751695 -14.787153 10.979377 -46.825866 3.4751706 
	-8.1366786 -3.4833967 
	-41.45839 -1.9600372 -0.096609578 -0.3556806 -46.825866 3.4751708 -37.946468 -151.0106 
	-42.030559 7.1809366 
	-2.772186 -9.6133834 -42.030559 7.1809353 -8.1366786 -3.4833967 -42.030559 7.1809365 
	-17.238934 179.57931 
420 -16.349293 159.19705 -41.453269 -2.4498763 -7.5669717 -13.799799 -41.453269 -2.4498752 
	-2.7720053 -9.8446239 
	-41.453269 -2.4498763 -37.913944 -150.79027 -46.823443 3.1189611 -0.096762199 -0.35949656 
	-42.027354 6.9150437 
	-7.5669717 -13.799799 -46.823443 3.1189611 -14.77805 11.244269 -46.823443 3.1189623 
	-8.139202 -3.5637568 
	-41.453269 -2.449875 -0.096762199 -0.35949643 -46.823443 3.1189624 -37.913944 -150.79027 
	-42.027354 6.915045 
	-2.7720053 -9.8446239 -42.027354 6.9150437 -8.139202 -3.5637568 -42.027354 6.9150449 
	-17.230403 179.55025 
430 -16.371241 158.67812 -41.44815 -2.9347729 -7.5675489 -14.124763 -41.44815 -2.9347718 
	-2.7717429 -10.075843 
	-41.44815 -2.9347729 -37.881327 -150.56749 -46.821065 2.7675303 -0.096911782 -0.36336208 
	-42.024188 6.653923 
	-7.5675489 -14.124763 -46.821065 2.7675303 -14.768647 11.508193 -46.821065 2.7675314 
	-8.1417044 -3.6442658 
	-41.44815 -2.9347716 -0.096911782 -0.36336194 -46.821065 2.7675315 -37.881328 -150.56749 
	-42.024188 6.6539243 
	-2.7717429 -10.075843 -42.024188 6.653923 -8.1417044 -3.6442658 -42.024188 6.6539242 
	-17.222054 179.52205 
440 -16.392739 158.15838 -41.444034 -3.3977267 -7.5680137 -14.449785 -41.444034 -3.3977255 
	-2.7713652 -10.307137 
	-41.444034 -3.3977267 -37.848274 -150.32732 -46.819739 2.437792 -0.097047414 -0.36745976 
	-42.022056 6.41449 
	-7.5680137 -14.449785 -46.819739 2.437792 -14.758926 11.770842 -46.819739 2.4377932 
	-8.1441439 -3.7251063 
	-41.444034 -3.3977254 -0.097047414 -0.36745962 -46.819739 2.4377933 -37.848275 -150.32733 
	-42.022056 6.4144913 
	-2.7713652 -10.307137 -42.022056 6.41449 -8.1441439 -3.7251063 -42.022056 6.4144912 
	-17.214109 179.49554 
450 -16.417157 157.63897 -41.439823 -3.8607843 -7.5686351 -14.775075 -41.439823 -3.8607832 
	-2.7710871 -10.538797 
	-41.439823 -3.8607843 -37.815194 -150.08895 -46.818565 2.108709 -0.097182985 -0.37155798 
	-42.019938 6.1756472 
	-7.5686351 -14.775075 -46.818565 2.108709 -14.749369 12.034385 -46.818565 2.1087102 
	-8.1468356 -3.8054298 
	-41.439823 -3.860783 -0.097182985 -0.37155785 -46.818565 2.1087103 -37.815195 -150.08896 
	-42.019938 6.1756485 
	-2.7710871 -10.538797 -42.019938 6.1756472 -8.1468356 -3.8054298 -42.019938 6.1756483 
	-17.205279 179.46712 
460 -16.440988 157.1179 -41.435689 -4.3173905 -7.5691531 -15.100289 -41.435689 -4.3173894 
	-2.7707037 -10.770399 
	-41.435689 -4.3173905 -37.782029 -149.84699 -46.817513 1.785792 -0.097313788 -0.37571967 
	-42.017926 5.9429672 
	-7.5691531 -15.100289 -46.817513 1.785792 -14.739497 12.296776 -46.817513 1.7857931 
	-8.1494736 -3.8859868 
	-41.435689 -4.3173893 -0.097313788 -0.37571954 -46.817513 1.7857933 -37.78203 -149.847 
	-42.017926 5.9429685 
	-2.7707037 -10.770399 -42.017926 5.9429672 -8.1494736 -3.8859868 -42.017926 5.9429684 
	-17.196801 179.4399 
470 -16.464661 156.59608 -41.432194 -4.7581734 -7.5696039 -15.425579 -41.432194 -4.7581723 
	-2.7702432 -11.002084 
	-41.432194 -4.7581734 -37.748667 -149.59325 -46.817154 1.4785693 -0.097432616 -0.38004242 
	-42.016604 5.7259725 
	-7.5696039 -15.425579 -46.817154 1.4785693 -14.729328 12.558045 -46.817154 1.4785704 
	-8.1520942 -3.9667623 
	-41.432194 -4.7581722 -0.097432616 -0.38004228 -46.817154 1.4785705 -37.748668 -149.59326 
	-42.016604 5.7259738 
	-2.7702432 -11.002084 -42.016604 5.7259725 -8.1520942 -3.9667623 -42.016604 5.7259737 
	-17.188494 179.41388 
480 -16.490652 156.07538 -41.428653 -5.1992512 -7.5702273 -15.751283 -41.428653 -5.19925 
	-2.7698978 -11.234129 
	-41.428653 -5.1992512 -37.715262 -149.34141 -46.816849 1.1718896 -0.097551372 -0.38436593 
	-42.015395 5.509479 
	-7.5702273 -15.751283 -46.816849 1.1718896 -14.718943 12.819268 -46.816849 1.1718907 
	-8.1549382 -4.047065 
	-41.428653 -5.1992499 -0.097551372 -0.38436579 -46.816849 1.1718909 -37.715263 -149.34142 
	-42.015395 5.5094803 
	-2.7698978 -11.234129 -42.015395 5.509479 -8.1549382 -4.047065 -42.015395 5.5094801 
	-17.179157 179.3861 
490 -16.516061 155.55292 -41.425282 -5.6329767 -7.5707455 -16.076909 -41.425282 -5.6329755 
	-2.7694456 -11.466112 
	-41.425282 -5.6329767 -37.681593 -149.08576 -46.816761 0.8722582 -0.097666666 -0.38876452 
	-42.014388 5.30003 
	-7.5707455 -16.076909 -46.816761 0.8722582 -14.708251 13.079254 -46.816761 0.87225934 
	-8.1577284 -4.1276161 
	-41.425282 -5.6329754 -0.097666666 -0.38876438 -46.816761 0.87225948 -37.681593 -149.08577 
	-42.014388 5.3000313 
	-2.7694456 -11.466112 -42.014388 5.30003 -8.1577284 -4.1276161 -42.014388 5.3000312 
	-17.170174 179.35959 
500 -16.541673 155.0296 -41.422395 -6.0554685 -7.5712401 -16.402651 -41.422395 -6.0554674 
	-2.7689487 -11.698219 
	-41.422395 -6.0554685 -37.647513 -148.82305 -46.817228 0.58385922 -0.097776579 -0.39328224 
	-42.013893 5.1017993 
	-7.5712401 -16.402651 -46.817228 0.58385922 -14.697366 13.33846 -46.817228 0.58386036 
	-8.1605365 -4.2082687 
	-41.422395 -6.0554673 -0.097776579 -0.39328211 -46.817228 0.5838605 -37.647513 -148.82305 
	-42.013893 5.1018006 
	-2.7689487 -11.698219 -42.013893 5.1017993 -8.1605365 -4.2082687 -42.013893 5.1018005 
	-17.161156 179.33377 
510 -16.569289 154.5064 -41.419512 -6.478239 -7.571907 -16.728825 -41.419512 -6.4782379 
	-2.7685581 -11.930739 
	-41.419512 -6.478239 -37.613387 -148.56239 -46.817833 0.29589032 -0.097886416 -0.39780008 
	-42.013424 4.903962 
	-7.571907 -16.728825 -46.817833 0.29589032 -14.686544 13.598196 -46.817833 0.29589147 
	-8.1635369 -4.2885266 
	-41.419512 -6.4782377 -0.097886416 -0.39779994 -46.817833 0.2958916 -37.613388 -148.56239 
	-42.013424 4.9039633 
	-2.7685581 -11.930739 -42.013424 4.903962 -8.1635369 -4.2885266 -42.013424 4.9039631 
	-17.151164 179.3065 
520 -16.596327 153.98135 -41.416813 -6.8931393 -7.5724669 -17.054924 -41.416813 -6.8931381 
	-2.7680591 -12.163201 
	-41.416813 -6.8931393 -37.579 -148.29753 -46.81867 0.015469301 -0.097991941 -0.40239884 
	-42.013171 4.7136692 
	-7.5724669 -17.054924 -46.81867 0.015469301 -14.675421 13.856639 -46.81867 0.015470447 
	-8.1664834 -4.3690556 