! AWR Design Environment (9226) Fri Apr 12 11:08:25 2019
! Document = '37400_OMN_OM'
! nPorts: 17, nXvals: 321

# GHz S DB R 50
!Freq DBS11 AngS11 DBS12 AngS12 DBS13 AngS13 DBS14 AngS14 
!	DBS15 AngS15 DBS16 AngS16 DBS17 AngS17 DBS18 AngS18 
!	DBS19 AngS19 DBS1_10 AngS1_10 DBS1_11 AngS1_11 DBS1_12 AngS1_12 
!	DBS1_13 AngS1_13 DBS1_14 AngS1_14 DBS1_15 AngS1_15 DBS1_16 AngS1_16 
!	DBS1_17 AngS1_17 
!	DBS21 AngS21 DBS22 AngS22 DBS23 AngS23 DBS24 AngS24 
!	DBS25 AngS25 DBS26 AngS26 DBS27 AngS27 DBS28 AngS28 
!	DBS29 AngS29 DBS2_10 AngS2_10 DBS2_11 AngS2_11 DBS2_12 AngS2_12 
!	DBS2_13 AngS2_13 DBS2_14 AngS2_14 DBS2_15 AngS2_15 DBS2_16 AngS2_16 
!	DBS2_17 AngS2_17 
!	DBS31 AngS31 DBS32 AngS32 DBS33 AngS33 DBS34 AngS34 
!	DBS35 AngS35 DBS36 AngS36 DBS37 AngS37 DBS38 AngS38 
!	DBS39 AngS39 DBS3_10 AngS3_10 DBS3_11 AngS3_11 DBS3_12 AngS3_12 
!	DBS3_13 AngS3_13 DBS3_14 AngS3_14 DBS3_15 AngS3_15 DBS3_16 AngS3_16 
!	DBS3_17 AngS3_17 
!	DBS41 AngS41 DBS42 AngS42 DBS43 AngS43 DBS44 AngS44 
!	DBS45 AngS45 DBS46 AngS46 DBS47 AngS47 DBS48 AngS48 
!	DBS49 AngS49 DBS4_10 AngS4_10 DBS4_11 AngS4_11 DBS4_12 AngS4_12 
!	DBS4_13 AngS4_13 DBS4_14 AngS4_14 DBS4_15 AngS4_15 DBS4_16 AngS4_16 
!	DBS4_17 AngS4_17 
!	DBS51 AngS51 DBS52 AngS52 DBS53 AngS53 DBS54 AngS54 
!	DBS55 AngS55 DBS56 AngS56 DBS57 AngS57 DBS58 AngS58 
!	DBS59 AngS59 DBS5_10 AngS5_10 DBS5_11 AngS5_11 DBS5_12 AngS5_12 
!	DBS5_13 AngS5_13 DBS5_14 AngS5_14 DBS5_15 AngS5_15 DBS5_16 AngS5_16 
!	DBS5_17 AngS5_17 
!	DBS61 AngS61 DBS62 AngS62 DBS63 AngS63 DBS64 AngS64 
!	DBS65 AngS65 DBS66 AngS66 DBS67 AngS67 DBS68 AngS68 
!	DBS69 AngS69 DBS6_10 AngS6_10 DBS6_11 AngS6_11 DBS6_12 AngS6_12 
!	DBS6_13 AngS6_13 DBS6_14 AngS6_14 DBS6_15 AngS6_15 DBS6_16 AngS6_16 
!	DBS6_17 AngS6_17 
!	DBS71 AngS71 DBS72 AngS72 DBS73 AngS73 DBS74 AngS74 
!	DBS75 AngS75 DBS76 AngS76 DBS77 AngS77 DBS78 AngS78 
!	DBS79 AngS79 DBS7_10 AngS7_10 DBS7_11 AngS7_11 DBS7_12 AngS7_12 
!	DBS7_13 AngS7_13 DBS7_14 AngS7_14 DBS7_15 AngS7_15 DBS7_16 AngS7_16 
!	DBS7_17 AngS7_17 
!	DBS81 AngS81 DBS82 AngS82 DBS83 AngS83 DBS84 AngS84 
!	DBS85 AngS85 DBS86 AngS86 DBS87 AngS87 DBS88 AngS88 
!	DBS89 AngS89 DBS8_10 AngS8_10 DBS8_11 AngS8_11 DBS8_12 AngS8_12 
!	DBS8_13 AngS8_13 DBS8_14 AngS8_14 DBS8_15 AngS8_15 DBS8_16 AngS8_16 
!	DBS8_17 AngS8_17 
!	DBS91 AngS91 DBS92 AngS92 DBS93 AngS93 DBS94 AngS94 
!	DBS95 AngS95 DBS96 AngS96 DBS97 AngS97 DBS98 AngS98 
!	DBS99 AngS99 DBS9_10 AngS9_10 DBS9_11 AngS9_11 DBS9_12 AngS9_12 
!	DBS9_13 AngS9_13 DBS9_14 AngS9_14 DBS9_15 AngS9_15 DBS9_16 AngS9_16 
!	DBS9_17 AngS9_17 
!	DBS10_1 AngS10_1 DBS10_2 AngS10_2 DBS10_3 AngS10_3 DBS10_4 AngS10_4 
!	DBS10_5 AngS10_5 DBS10_6 AngS10_6 DBS10_7 AngS10_7 DBS10_8 AngS10_8 
!	DBS10_9 AngS10_9 DBS10_10 AngS10_10 DBS10_11 AngS10_11 DBS10_12 AngS10_12 
!	DBS10_13 AngS10_13 DBS10_14 AngS10_14 DBS10_15 AngS10_15 DBS10_16 AngS10_16 
!	DBS10_17 AngS10_17 
!	DBS11_1 AngS11_1 DBS11_2 AngS11_2 DBS11_3 AngS11_3 DBS11_4 AngS11_4 
!	DBS11_5 AngS11_5 DBS11_6 AngS11_6 DBS11_7 AngS11_7 DBS11_8 AngS11_8 
!	DBS11_9 AngS11_9 DBS11_10 AngS11_10 DBS11_11 AngS11_11 DBS11_12 AngS11_12 
!	DBS11_13 AngS11_13 DBS11_14 AngS11_14 DBS11_15 AngS11_15 DBS11_16 AngS11_16 
!	DBS11_17 AngS11_17 
!	DBS12_1 AngS12_1 DBS12_2 AngS12_2 DBS12_3 AngS12_3 DBS12_4 AngS12_4 
!	DBS12_5 AngS12_5 DBS12_6 AngS12_6 DBS12_7 AngS12_7 DBS12_8 AngS12_8 
!	DBS12_9 AngS12_9 DBS12_10 AngS12_10 DBS12_11 AngS12_11 DBS12_12 AngS12_12 
!	DBS12_13 AngS12_13 DBS12_14 AngS12_14 DBS12_15 AngS12_15 DBS12_16 AngS12_16 
!	DBS12_17 AngS12_17 
!	DBS13_1 AngS13_1 DBS13_2 AngS13_2 DBS13_3 AngS13_3 DBS13_4 AngS13_4 
!	DBS13_5 AngS13_5 DBS13_6 AngS13_6 DBS13_7 AngS13_7 DBS13_8 AngS13_8 
!	DBS13_9 AngS13_9 DBS13_10 AngS13_10 DBS13_11 AngS13_11 DBS13_12 AngS13_12 
!	DBS13_13 AngS13_13 DBS13_14 AngS13_14 DBS13_15 AngS13_15 DBS13_16 AngS13_16 
!	DBS13_17 AngS13_17 
!	DBS14_1 AngS14_1 DBS14_2 AngS14_2 DBS14_3 AngS14_3 DBS14_4 AngS14_4 
!	DBS14_5 AngS14_5 DBS14_6 AngS14_6 DBS14_7 AngS14_7 DBS14_8 AngS14_8 
!	DBS14_9 AngS14_9 DBS14_10 AngS14_10 DBS14_11 AngS14_11 DBS14_12 AngS14_12 
!	DBS14_13 AngS14_13 DBS14_14 AngS14_14 DBS14_15 AngS14_15 DBS14_16 AngS14_16 
!	DBS14_17 AngS14_17 
!	DBS15_1 AngS15_1 DBS15_2 AngS15_2 DBS15_3 AngS15_3 DBS15_4 AngS15_4 
!	DBS15_5 AngS15_5 DBS15_6 AngS15_6 DBS15_7 AngS15_7 DBS15_8 AngS15_8 
!	DBS15_9 AngS15_9 DBS15_10 AngS15_10 DBS15_11 AngS15_11 DBS15_12 AngS15_12 
!	DBS15_13 AngS15_13 DBS15_14 AngS15_14 DBS15_15 AngS15_15 DBS15_16 AngS15_16 
!	DBS15_17 AngS15_17 
!	DBS16_1 AngS16_1 DBS16_2 AngS16_2 DBS16_3 AngS16_3 DBS16_4 AngS16_4 
!	DBS16_5 AngS16_5 DBS16_6 AngS16_6 DBS16_7 AngS16_7 DBS16_8 AngS16_8 
!	DBS16_9 AngS16_9 DBS16_10 AngS16_10 DBS16_11 AngS16_11 DBS16_12 AngS16_12 
!	DBS16_13 AngS16_13 DBS16_14 AngS16_14 DBS16_15 AngS16_15 DBS16_16 AngS16_16 
!	DBS16_17 AngS16_17 
!	DBS17_1 AngS17_1 DBS17_2 AngS17_2 DBS17_3 AngS17_3 DBS17_4 AngS17_4 
!	DBS17_5 AngS17_5 DBS17_6 AngS17_6 DBS17_7 AngS17_7 DBS17_8 AngS17_8 
!	DBS17_9 AngS17_9 DBS17_10 AngS17_10 DBS17_11 AngS17_11 DBS17_12 AngS17_12 
!	DBS17_13 AngS17_13 DBS17_14 AngS17_14 DBS17_15 AngS17_15 DBS17_16 AngS17_16 
!	DBS17_17 AngS17_17 
0 -1.0980259 180 -18.588649 -0 -18.588583 -0 -18.588502 -0 
	-18.588477 -0 -18.588457 -0 -18.588553 -0 -18.588684 -0 
	-18.588812 -0 -18.588812 -0 -18.588685 -0 -18.588553 -0 
	-18.588457 -0 -18.588477 -0 -18.588502 -0 -18.588583 -0 
	-18.588649 -0 
	-18.588649 0 -1.1092626 180 -18.539245 -0 -18.537823 -0 
	-18.5361 -0 -18.534358 -0 -18.532911 -0 -18.531885 -0 
	-18.531357 -0 -18.642073 -0 -18.641945 -0 -18.641814 -0 
	-18.641717 -0 -18.641737 -0 -18.641763 -0 -18.641843 -0 
	-18.641909 -0 
	-18.588583 0 -18.539245 0 -1.1094737 180 -18.537385 -0 
	-18.535949 -0 -18.534496 -0 -18.533245 -0 -18.532352 -0 
	-18.531879 -0 -18.642007 -0 -18.641879 -0 -18.641748 -0 
	-18.641652 -0 -18.641672 -0 -18.641697 -0 -18.641778 -0 
	-18.641843 -0 
	-18.588502 0 -18.537823 0 -18.537385 0 -1.1097299 180 
	-18.535687 -0 -18.534736 -0 -18.533854 -0 -18.533221 -0 
	-18.532866 -0 -18.641926 -0 -18.641798 -0 -18.641667 -0 
	-18.641571 -0 -18.641591 -0 -18.641616 -0 -18.641697 -0 
	-18.641763 -0 
	-18.588477 0 -18.5361 0 -18.535949 0 -18.535687 0 
	-1.1099032 180 -18.535028 -0 -18.534688 -0 -18.534448 -0 
	-18.534307 -0 -18.641901 -0 -18.641773 -0 -18.641642 -0 
	-18.641546 -0 -18.641566 -0 -18.641591 -0 -18.641672 -0 
	-18.641737 -0 
	-18.588457 0 -18.534358 0 -18.534496 0 -18.534736 0 
	-18.535028 0 -1.1098699 180 -18.535823 -0 -18.535994 -0 
	-18.535971 -0 -18.641881 -0 -18.641753 -0 -18.641622 -0 
	-18.641526 -0 -18.641546 -0 -18.641571 -0 -18.641652 -0 
	-18.641717 -0 
	-18.588553 0 -18.532911 0 -18.533245 0 -18.533854 0 
	-18.534688 0 -18.535823 0 -1.1097247 180 -18.537363 -0 
	-18.537672 -0 -18.641977 -0 -18.641849 -0 -18.641718 -0 
	-18.641622 -0 -18.641642 -0 -18.641667 -0 -18.641748 -0 
	-18.641814 -0 
	-18.588684 0 -18.531885 0 -18.532352 0 -18.533221 0 
	-18.534448 0 -18.535994 0 -18.537363 0 -1.1094815 180 
	-18.539097 -0 -18.642108 -0 -18.64198 -0 -18.641849 -0 
	-18.641753 -0 -18.641773 -0 -18.641798 -0 -18.641879 -0 
	-18.641945 -0 
	-18.588812 0 -18.531357 0 -18.531879 0 -18.532866 0 
	-18.534307 0 -18.535971 0 -18.537672 0 -18.539097 0 
	-1.1092823 180 -18.642236 -0 -18.642108 -0 -18.641977 -0 
	-18.641881 -0 -18.641901 -0 -18.641926 -0 -18.642007 -0 
	-18.642073 -0 
	-18.588812 0 -18.642073 0 -18.642007 0 -18.641926 0 
	-18.641901 0 -18.641881 0 -18.641977 0 -18.642108 0 
	-18.642236 0 -1.1092823 180 -18.539097 -0 -18.537672 -0 
	-18.535971 -0 -18.534307 -0 -18.532866 -0 -18.531879 -0 
	-18.531357 -0 
	-18.588685 0 -18.641945 0 -18.641879 0 -18.641798 0 
	-18.641773 0 -18.641753 0 -18.641849 0 -18.64198 0 
	-18.642108 0 -18.539097 0 -1.1094815 180 -18.537363 -0 
	-18.535994 -0 -18.534448 -0 -18.533221 -0 -18.532352 -0 
	-18.531885 -0 
	-18.588553 0 -18.641814 0 -18.641748 0 -18.641667 0 
	-18.641642 0 -18.641622 0 -18.641718 0 -18.641849 0 
	-18.641977 0 -18.537672 0 -18.537363 0 -1.1097247 180 
	-18.535823 -0 -18.534688 -0 -18.533854 -0 -18.533245 -0 
	-18.532911 -0 
	-18.588457 0 -18.641717 0 -18.641652 0 -18.641571 0 
	-18.641546 0 -18.641526 0 -18.641622 0 -18.641753 0 
	-18.641881 0 -18.535971 0 -18.535994 0 -18.535823 0 
	-1.1098699 180 -18.535028 -0 -18.534736 -0 -18.534496 -0 
	-18.534358 -0 
	-18.588477 0 -18.641737 0 -18.641672 0 -18.641591 0 
	-18.641566 0 -18.641546 0 -18.641642 0 -18.641773 0 
	-18.641901 0 -18.534307 0 -18.534448 0 -18.534688 0 
	-18.535028 0 -1.1099032 180 -18.535687 -0 -18.535949 -0 
	-18.5361 -0 
	-18.588502 0 -18.641763 0 -18.641697 0 -18.641616 0 
	-18.641591 0 -18.641571 0 -18.641667 0 -18.641798 0 
	-18.641926 0 -18.532866 0 -18.533221 0 -18.533854 0 
	-18.534736 0 -18.535687 0 -1.1097299 180 -18.537385 -0 
	-18.537823 -0 
	-18.588583 0 -18.641843 0 -18.641778 0 -18.641697 0 
	-18.641672 0 -18.641652 0 -18.641748 0 -18.641879 0 
	-18.642007 0 -18.531879 0 -18.532352 0 -18.533245 0 
	-18.534496 0 -18.535949 0 -18.537385 0 -1.1094737 180 
	-18.539245 -0 
	-18.588649 0 -18.641909 0 -18.641843 0 -18.641763 0 
	-18.641737 0 -18.641717 0 -18.641814 0 -18.641945 0 
	-18.642073 0 -18.531357 0 -18.531885 0 -18.532911 0 
	-18.534358 0 -18.5361 0 -18.537823 0 -18.539245 0 
	-1.1092626 180 
0.05 -1.1007932 178.3484 -18.596051 -3.0931771 -18.596195 -3.1515881 -18.596191 -3.1637682 
	-18.596165 -3.1646361 -18.596125 -3.1625798 -18.596078 -3.1580408 -18.596029 -3.14347 
	-18.595858 -3.0844661 -18.595858 -3.084466 -18.596029 -3.1434699 -18.596078 -3.1580407 
	-18.596125 -3.1625797 -18.596165 -3.164636 -18.596191 -3.1637681 -18.596195 -3.151588 
	-18.596051 -3.093177 
	-18.596051 -3.0931771 -1.12532 178.39063 -18.368516 5.5673676 -18.390537 4.2689179 
	-18.400306 3.6388051 -18.406323 3.263976 -18.41024 3.0306842 -18.412584 2.9045075 
	-18.413575 2.8951145 -18.691871 -9.192843 -18.692043 -9.2518469 -18.692091 -9.2664177 
	-18.692138 -9.2709567 -18.692178 -9.273013 -18.692204 -9.2721451 -18.692208 -9.259965 
	-18.692064 -9.201554 
	-18.596195 -3.1515881 -18.368516 5.5673676 -1.1255574 178.48876 -18.378041 5.0592258 
	-18.396856 3.8918852 -18.404574 3.3639031 -18.409003 3.0739966 -18.411556 2.9234151 
	-18.412643 2.9029228 -18.692015 -9.251254 -18.692187 -9.3102579 -18.692235 -9.3248287 
	-18.692282 -9.3293677 -18.692322 -9.331424 -18.692348 -9.3305561 -18.692352 -9.318376 
	-18.692208 -9.259965 
	-18.596191 -3.1637682 -18.390537 4.2689179 -18.378041 5.0592258 -1.1254032 178.53791 
	-18.383382 4.8117449 -18.399922 3.7318839 -18.406062 3.2812218 -18.409146 3.0709742 
	-18.41044 3.0261243 -18.692011 -9.2634341 -18.692183 -9.322438 -18.692231 -9.3370088 
	-18.692278 -9.3415478 -18.692318 -9.3436041 -18.692344 -9.3427362 -18.692348 -9.3305561 
	-18.692204 -9.2721451 
	-18.596165 -3.1646361 -18.400306 3.6388051 -18.396856 3.8918852 -18.383382 4.8117449 
	-1.1252759 178.55926 -18.385229 4.7344423 -18.400137 3.7276175 -18.40493 3.3566654 
	-18.406734 3.2553843 -18.691985 -9.264302 -18.692156 -9.3233059 -18.692205 -9.3378767 
	-18.692252 -9.3424157 -18.692292 -9.344472 -18.692318 -9.3436041 -18.692322 -9.331424 
	-18.692178 -9.273013 
	-18.596125 -3.1625798 -18.406323 3.263976 -18.404574 3.3639031 -18.399922 3.7318839 
	-18.385229 4.7344423 -1.1252515 178.55984 -18.38386 4.8030494 -18.397461 3.8803686 
	-18.400959 3.6262024 -18.691945 -9.2622457 -18.692116 -9.3212496 -18.692165 -9.3358204 
	-18.692212 -9.3403594 -18.692252 -9.3424157 -18.692278 -9.3415478 -18.692282 -9.3293677 
	-18.692138 -9.2709567 
	-18.596078 -3.1580408 -18.41024 3.0306842 -18.409003 3.0739966 -18.406062 3.2812218 
	-18.400137 3.7276175 -18.38386 4.8030494 -1.125335 178.53954 -18.378904 5.0444904 
	-18.391423 4.2536414 -18.691898 -9.2577067 -18.692069 -9.3167106 -18.692118 -9.3312814 
	-18.692165 -9.3358204 -18.692205 -9.3378767 -18.692231 -9.3370088 -18.692235 -9.3248287 
	-18.692091 -9.2664177 
	-18.596029 -3.14347 -18.412584 2.9045075 -18.411556 2.9234151 -18.409146 3.0709742 
	-18.40493 3.3566654 -18.397461 3.8803686 -18.378904 5.0444904 -1.1254582 178.49102 
	-18.369593 5.551746 -18.69185 -9.2431359 -18.692021 -9.3021397 -18.692069 -9.3167106 
	-18.692116 -9.3212496 -18.692156 -9.3233059 -18.692183 -9.322438 -18.692187 -9.3102579 
	-18.692043 -9.2518469 
	-18.595858 -3.0844661 -18.413575 2.8951145 -18.412643 2.9029228 -18.41044 3.0261243 
	-18.406734 3.2553843 -18.400959 3.6262024 -18.391423 4.2536414 -18.369593 5.551746 
	-1.1252027 178.39252 -18.691678 -9.184132 -18.69185 -9.2431359 -18.691898 -9.2577067 
	-18.691945 -9.2622457 -18.691985 -9.264302 -18.692011 -9.2634341 -18.692015 -9.251254 
	-18.691871 -9.192843 
	-18.595858 -3.084466 -18.691871 -9.192843 -18.692015 -9.251254 -18.692011 -9.2634341 
	-18.691985 -9.264302 -18.691945 -9.2622457 -18.691898 -9.2577067 -18.69185 -9.2431359 
	-18.691678 -9.184132 -1.1252027 178.39252 -18.369593 5.551746 -18.391423 4.2536413 
	-18.400959 3.6262024 -18.406734 3.2553842 -18.41044 3.0261242 -18.412643 2.9029227 
	-18.413575 2.8951145 
	-18.596029 -3.1434699 -18.692043 -9.2518469 -18.692187 -9.3102579 -18.692183 -9.322438 
	-18.692156 -9.3233059 -18.692116 -9.3212496 -18.692069 -9.3167106 -18.692021 -9.3021397 
	-18.69185 -9.2431359 -18.369593 5.551746 -1.1254582 178.49102 -18.378904 5.0444904 
	-18.397461 3.8803686 -18.40493 3.3566654 -18.409146 3.0709742 -18.411556 2.9234151 
	-18.412584 2.9045074 
	-18.596078 -3.1580407 -18.692091 -9.2664177 -18.692235 -9.3248287 -18.692231 -9.3370088 
	-18.692205 -9.3378767 -18.692165 -9.3358204 -18.692118 -9.3312814 -18.692069 -9.3167106 
	-18.691898 -9.2577067 -18.391423 4.2536413 -18.378904 5.0444904 -1.125335 178.53954 
	-18.38386 4.8030493 -18.400137 3.7276174 -18.406062 3.2812218 -18.409003 3.0739965 
	-18.41024 3.0306841 
	-18.596125 -3.1625797 -18.692138 -9.2709567 -18.692282 -9.3293677 -18.692278 -9.3415478 
	-18.692252 -9.3424157 -18.692212 -9.3403594 -18.692165 -9.3358204 -18.692116 -9.3212496 
	-18.691945 -9.2622457 -18.400959 3.6262024 -18.397461 3.8803686 -18.38386 4.8030493 
	-1.1252515 178.55984 -18.385229 4.7344423 -18.399922 3.7318839 -18.404574 3.3639031 
	-18.406323 3.263976 
	-18.596165 -3.164636 -18.692178 -9.273013 -18.692322 -9.331424 -18.692318 -9.3436041 
	-18.692292 -9.344472 -18.692252 -9.3424157 -18.692205 -9.3378767 -18.692156 -9.3233059 
	-18.691985 -9.264302 -18.406734 3.2553842 -18.40493 3.3566654 -18.400137 3.7276174 
	-18.385229 4.7344423 -1.1252759 178.55926 -18.383382 4.8117449 -18.396856 3.8918852 
	-18.400306 3.6388051 
	-18.596191 -3.1637681 -18.692204 -9.2721451 -18.692348 -9.3305561 -18.692344 -9.3427362 
	-18.692318 -9.3436041 -18.692278 -9.3415478 -18.692231 -9.3370088 -18.692183 -9.322438 
	-18.692011 -9.2634341 -18.41044 3.0261242 -18.409146 3.0709742 -18.406062 3.2812218 
	-18.399922 3.7318839 -18.383382 4.8117449 -1.1254032 178.53791 -18.378041 5.0592258 
	-18.390537 4.2689179 
	-18.596195 -3.151588 -18.692208 -9.259965 -18.692352 -9.318376 -18.692348 -9.3305561 
	-18.692322 -9.331424 -18.692282 -9.3293677 -18.692235 -9.3248287 -18.692187 -9.3102579 
	-18.692015 -9.251254 -18.412643 2.9029227 -18.411556 2.9234151 -18.409003 3.0739965 
	-18.404574 3.3639031 -18.396856 3.8918852 -18.378041 5.0592258 -1.1255574 178.48876 
	-18.368516 5.5673676 
	-18.596051 -3.093177 -18.692064 -9.201554 -18.692208 -9.259965 -18.692204 -9.2721451 
	-18.692178 -9.273013 -18.692138 -9.2709567 -18.692091 -9.2664177 -18.692043 -9.2518469 
	-18.691871 -9.192843 -18.413575 2.8951145 -18.412584 2.9045074 -18.41024 3.0306841 
	-18.406323 3.263976 -18.400306 3.6388051 -18.390537 4.2689179 -18.368516 5.5673676 
	-1.12532 178.39063 
0.1 -1.1010855 176.73726 -18.59759 -6.1475385 -18.598153 -6.2560586 -18.598425 -6.2776577 
	-18.598537 -6.2797394 -18.598563 -6.2795849 -18.598387 -6.275072 -18.598102 -6.2398526 
	-18.597513 -6.1169496 -18.597513 -6.1169494 -18.598102 -6.2398523 -18.598387 -6.2750718 
	-18.598563 -6.2795847 -18.598537 -6.2797392 -18.598425 -6.2776575 -18.598153 -6.2560584 
	-18.59759 -6.1475383 
	-18.59759 -6.1475385 -1.1616804 176.8537 -17.972337 10.080295 -18.044673 7.6039856 
	-18.075998 6.3972261 -18.093744 5.688145 -18.104634 5.2448739 -18.111061 5.0072384 
	-18.114146 4.975089 -18.760516 -17.991261 -18.761105 -18.114164 -18.76139 -18.149384 
	-18.761566 -18.153897 -18.76154 -18.154051 -18.761428 -18.15197 -18.761156 -18.13037 
	-18.760593 -18.02185 
	-18.598153 -6.2560586 -17.972337 10.080295 -1.1628494 177.05496 -18.002667 9.10693 
	-18.063141 6.8916348 -18.08794 5.8713099 -18.101249 5.3098801 -18.108998 5.0020786 
	-18.112092 4.972816 -18.761079 -18.099782 -18.761668 -18.222685 -18.761953 -18.257904 
	-18.762128 -18.262417 -18.762102 -18.262571 -18.761991 -18.26049 -18.761719 -18.238891 
	-18.761156 -18.13037 
	-18.598425 -6.2776577 -18.044673 7.6039856 -18.002667 9.10693 -1.1627531 177.15332 
	-18.018453 8.6446414 -18.072193 6.5683263 -18.09223 5.7010266 -18.10224 5.2815522 
	-18.106132 5.2125163 -18.761351 -18.121381 -18.76194 -18.244284 -18.762225 -18.279503 
	-18.762401 -18.284016 -18.762375 -18.28417 -18.762263 -18.282089 -18.761991 -18.26049 
	-18.761428 -18.15197 
	-18.598537 -6.2797394 -18.075998 6.3972261 -18.063141 6.8916348 -18.018453 8.6446414 
	-1.1625704 177.19683 -18.024024 8.484858 -18.072592 6.5616674 -18.089414 5.8320405 
	-18.095675 5.645429 -18.761462 -18.123462 -18.762051 -18.246365 -18.762337 -18.281585 
	-18.762512 -18.286098 -18.762486 -18.286252 -18.762375 -18.28417 -18.762102 -18.262571 
	-18.76154 -18.154051 
	-18.598563 -6.2795849 -18.093744 5.688145 -18.08794 5.8713099 -18.072193 6.5683263 
	-18.024024 8.484858 -1.1625802 177.19687 -18.019058 8.6310838 -18.064589 6.8612948 
	-18.078041 6.3629738 -18.761488 -18.123308 -18.762077 -18.246211 -18.762363 -18.28143 
	-18.762538 -18.285943 -18.762512 -18.286098 -18.762401 -18.284016 -18.762128 -18.262417 
	-18.761566 -18.153897 
	-18.598387 -6.275072 -18.104634 5.2448739 -18.101249 5.3098801 -18.09223 5.7010266 
	-18.072592 6.5616674 -18.019058 8.6310838 -1.1626877 177.15559 -18.004116 9.0912755 
	-18.0466 7.5868606 -18.761313 -18.118795 -18.761902 -18.241698 -18.762187 -18.276917 
	-18.762363 -18.28143 -18.762337 -18.281585 -18.762225 -18.279503 -18.761953 -18.257904 
	-18.76139 -18.149384 
	-18.598102 -6.2398526 -18.111061 5.0072384 -18.108998 5.0020786 -18.10224 5.2815522 
	-18.089414 5.8320405 -18.064589 6.8612948 -18.004116 9.0912755 -1.1626518 177.05715 
	-17.974872 10.060759 -18.761028 -18.083576 -18.761617 -18.206478 -18.761902 -18.241698 
	-18.762077 -18.246211 -18.762051 -18.246365 -18.76194 -18.244284 -18.761668 -18.222685 
	-18.761105 -18.114164 
	-18.597513 -6.1169496 -18.114146 4.975089 -18.112092 4.972816 -18.106132 5.2125163 
	-18.095675 5.645429 -18.078041 6.3629738 -18.0466 7.5868606 -17.974872 10.060759 
	-1.1613842 176.86123 -18.760439 -17.960673 -18.761028 -18.083576 -18.761313 -18.118795 
	-18.761488 -18.123308 -18.761462 -18.123462 -18.761351 -18.121381 -18.761079 -18.099782 
	-18.760516 -17.991261 
	-18.597513 -6.1169494 -18.760516 -17.991261 -18.761079 -18.099782 -18.761351 -18.121381 
	-18.761462 -18.123462 -18.761488 -18.123308 -18.761313 -18.118795 -18.761028 -18.083576 
	-18.760439 -17.960673 -1.1613842 176.86123 -17.974872 10.060759 -18.0466 7.5868606 
	-18.078041 6.3629738 -18.095675 5.645429 -18.106132 5.2125163 -18.112092 4.9728159 
	-18.114146 4.9750889 
	-18.598102 -6.2398523 -18.761105 -18.114164 -18.761668 -18.222685 -18.76194 -18.244284 
	-18.762051 -18.246365 -18.762077 -18.246211 -18.761902 -18.241698 -18.761617 -18.206478 
	-18.761028 -18.083576 -17.974872 10.060759 -1.1626518 177.05715 -18.004116 9.0912755 
	-18.064589 6.8612948 -18.089414 5.8320405 -18.10224 5.2815521 -18.108998 5.0020786 
	-18.111061 5.0072384 
	-18.598387 -6.2750718 -18.76139 -18.149384 -18.761953 -18.257904 -18.762225 -18.279503 
	-18.762337 -18.281585 -18.762363 -18.28143 -18.762187 -18.276917 -18.761902 -18.241698 
	-18.761313 -18.118795 -18.0466 7.5868606 -18.004116 9.0912755 -1.1626877 177.15559 
	-18.019058 8.6310837 -18.072592 6.5616674 -18.09223 5.7010265 -18.101249 5.30988 
	-18.104634 5.2448738 
	-18.598563 -6.2795847 -18.761566 -18.153897 -18.762128 -18.262417 -18.762401 -18.284016 
	-18.762512 -18.286098 -18.762538 -18.285943 -18.762363 -18.28143 -18.762077 -18.246211 
	-18.761488 -18.123308 -18.078041 6.3629738 -18.064589 6.8612948 -18.019058 8.6310837 
	-1.1625802 177.19687 -18.024024 8.484858 -18.072193 6.5683263 -18.08794 5.8713099 
	-18.093744 5.688145 
	-18.598537 -6.2797392 -18.76154 -18.154051 -18.762102 -18.262571 -18.762375 -18.28417 
	-18.762486 -18.286252 -18.762512 -18.286098 -18.762337 -18.281585 -18.762051 -18.246365 
	-18.761462 -18.123462 -18.095675 5.645429 -18.089414 5.8320405 -18.072592 6.5616674 
	-18.024024 8.484858 -1.1625704 177.19683 -18.018453 8.6446414 -18.063141 6.8916347 
	-18.075998 6.3972261 
	-18.598425 -6.2776575 -18.761428 -18.15197 -18.761991 -18.26049 -18.762263 -18.282089 
	-18.762375 -18.28417 -18.762401 -18.284016 -18.762225 -18.279503 -18.76194 -18.244284 
	-18.761351 -18.121381 -18.106132 5.2125163 -18.10224 5.2815521 -18.09223 5.7010265 
	-18.072193 6.5683263 -18.018453 8.6446414 -1.1627531 177.15332 -18.002667 9.10693 
	-18.044673 7.6039856 
	-18.598153 -6.2560584 -18.761156 -18.13037 -18.761719 -18.238891 -18.761991 -18.26049 
	-18.762102 -18.262571 -18.762128 -18.262417 -18.761953 -18.257904 -18.761668 -18.222685 
	-18.761079 -18.099782 -18.112092 4.9728159 -18.108998 5.0020786 -18.101249 5.30988 
	-18.08794 5.8713099 -18.063141 6.8916347 -18.002667 9.10693 -1.1628494 177.05496 
	-17.972337 10.080295 
	-18.59759 -6.1475383 -18.760593 -18.02185 -18.761156 -18.13037 -18.761428 -18.15197 
	-18.76154 -18.154051 -18.761566 -18.153897 -18.76139 -18.149384 -18.761105 -18.114164 
	-18.760516 -17.991261 -18.114146 4.9750889 -18.111061 5.0072384 -18.104634 5.2448738 
	-18.093744 5.688145 -18.075998 6.3972261 -18.044673 7.6039856 -17.972337 10.080295 
	-1.1616804 176.8537 
0.15 -1.1011336 175.12646 -18.600016 -9.201339 -18.601294 -9.360503 -18.60205 -9.3913009 
	-18.60237 -9.3946982 -18.602611 -9.3951194 -18.602184 -9.3906708 -18.60148 -9.3356826 
	-18.60013 -9.150119 -18.60013 -9.1501187 -18.60148 -9.3356822 -18.602184 -9.3906705 
	-18.602611 -9.395119 -18.60237 -9.3946979 -18.60205 -9.3913006 -18.601294 -9.3605027 
	-18.600016 -9.2013387 
	-18.600016 -9.201339 -1.2189802 175.38866 -17.417685 13.352102 -17.552984 9.8968263 
	-17.611523 8.2007399 -17.644185 7.205085 -17.663838 6.5802575 -17.675351 6.2483628 
	-17.680955 6.2052155 -18.871826 -26.713177 -18.873175 -26.898741 -18.873879 -26.953729 
	-18.874306 -26.958178 -18.874065 -26.957756 -18.873745 -26.954359 -18.872989 -26.923561 
	-18.871711 -26.764397 
	-18.601294 -9.360503 -17.417685 13.352102 -1.2215541 175.69589 -17.474614 11.99 
	-17.587061 8.8935158 -17.63344 7.4530942 -17.657936 6.6579809 -17.672215 6.2182263 
	-17.677731 6.1881228 -18.873104 -26.872341 -18.874454 -27.057905 -18.875158 -27.112893 
	-18.875585 -27.117342 -18.875344 -27.11692 -18.875023 -27.113523 -18.874268 -27.082725 
	-18.872989 -26.923561 
	-18.60205 -9.3913009 -17.552984 9.8968263 -17.474614 11.99 -1.2214952 175.84461 
	-17.503795 11.349788 -17.603905 8.4313478 -17.641356 7.2069207 -17.660088 6.6102318 
	-17.667154 6.5273428 -18.87386 -26.903139 -18.875209 -27.088703 -18.875913 -27.143691 
	-18.87634 -27.148139 -18.876099 -27.147718 -18.875779 -27.144321 -18.875023 -27.113523 
	-18.873745 -26.954359 
	-18.60237 -9.3946982 -17.611523 8.2007399 -17.587061 8.8935158 -17.503795 11.349788 
	-1.2212031 175.91065 -17.514204 11.122999 -17.604575 8.4225022 -17.636467 7.3880367 
	-17.648203 7.1359178 -18.87418 -26.906536 -18.87553 -27.0921 -18.876234 -27.147088 
	-18.876661 -27.151537 -18.87642 -27.151116 -18.876099 -27.147718 -18.875344 -27.11692 
	-18.874065 -26.957756 
	-18.602611 -9.3951194 -17.644185 7.205085 -17.63344 7.4530942 -17.603905 8.4313478 
	-17.514204 11.122999 -1.2212858 175.91007 -17.50444 11.332185 -17.58963 8.8486721 
	-17.615613 8.1516382 -18.874421 -26.906958 -18.875771 -27.092521 -18.876475 -27.147509 
	-18.876902 -27.151958 -18.876661 -27.151537 -18.87634 -27.148139 -18.875585 -27.117342 
	-18.874306 -26.958178 
	-18.602184 -9.3906708 -17.663838 6.5802575 -17.657936 6.6579809 -17.641356 7.2069207 
	-17.604575 8.4225022 -17.50444 11.332185 -1.221443 175.84755 -17.476731 11.974548 
	-17.556327 9.8804629 -18.873994 -26.902509 -18.875344 -27.088073 -18.876048 -27.143061 
	-18.876475 -27.147509 -18.876234 -27.147088 -18.875913 -27.143691 -18.875158 -27.112893 
	-18.873879 -26.953729 
	-18.60148 -9.3356826 -17.675351 6.2483628 -17.672215 6.2182263 -17.660088 6.6102318 
	-17.636467 7.3880367 -17.58963 8.8486721 -17.476731 11.974548 -1.2211928 175.6979 
	-17.422096 13.33408 -18.87329 -26.847521 -18.87464 -27.033084 -18.875344 -27.088073 
	-18.875771 -27.092521 -18.87553 -27.0921 -18.875209 -27.088703 -18.874454 -27.057905 
	-18.873175 -26.898741 
	-18.60013 -9.150119 -17.680955 6.2052155 -17.677731 6.1881228 -17.667154 6.5273428 
	-17.648203 7.1359178 -17.615613 8.1516382 -17.556327 9.8804629 -17.422096 13.33408 
	-1.2183932 175.40105 -18.87194 -26.661957 -18.87329 -26.847521 -18.873994 -26.902509 
	-18.874421 -26.906958 -18.87418 -26.906536 -18.87386 -26.903139 -18.873104 -26.872341 
	-18.871826 -26.713177 
	-18.60013 -9.1501187 -18.871826 -26.713177 -18.873104 -26.872341 -18.87386 -26.903139 
	-18.87418 -26.906536 -18.874421 -26.906958 -18.873994 -26.902509 -18.87329 -26.847521 
	-18.87194 -26.661957 -1.2183932 175.40105 -17.422096 13.33408 -17.556327 9.8804629 
	-17.615613 8.1516381 -17.648203 7.1359178 -17.667154 6.5273427 -17.677731 6.1881227 
	-17.680955 6.2052154 
	-18.60148 -9.3356822 -18.873175 -26.898741 -18.874454 -27.057905 -18.875209 -27.088703 
	-18.87553 -27.0921 -18.875771 -27.092521 -18.875344 -27.088073 -18.87464 -27.033084 
	-18.87329 -26.847521 -17.422096 13.33408 -1.2211928 175.6979 -17.476731 11.974548 
	-17.58963 8.848672 -17.636467 7.3880366 -17.660088 6.6102318 -17.672215 6.2182262 
	-17.675351 6.2483628 
	-18.602184 -9.3906705 -18.873879 -26.953729 -18.875158 -27.112893 -18.875913 -27.143691 
	-18.876234 -27.147088 -18.876475 -27.147509 -18.876048 -27.143061 -18.875344 -27.088073 
	-18.873994 -26.902509 -17.556327 9.8804629 -17.476731 11.974548 -1.221443 175.84755 
	-17.50444 11.332185 -17.604575 8.4225021 -17.641356 7.2069206 -17.657936 6.6579808 
	-17.663838 6.5802574 
	-18.602611 -9.395119 -18.874306 -26.958178 -18.875585 -27.117342 -18.87634 -27.148139 
	-18.876661 -27.151537 -18.876902 -27.151958 -18.876475 -27.147509 -18.875771 -27.092521 
	-18.874421 -26.906958 -17.615613 8.1516381 -17.58963 8.848672 -17.50444 11.332185 
	-1.2212858 175.91007 -17.514204 11.122999 -17.603905 8.4313478 -17.63344 7.4530941 
	-17.644185 7.205085 
	-18.60237 -9.3946979 -18.874065 -26.957756 -18.875344 -27.11692 -18.876099 -27.147718 
	-18.87642 -27.151116 -18.876661 -27.151537 -18.876234 -27.147088 -18.87553 -27.0921 
	-18.87418 -26.906536 -17.648203 7.1359178 -17.636467 7.3880366 -17.604575 8.4225021 
	-17.514204 11.122999 -1.2212031 175.91065 -17.503795 11.349788 -17.587061 8.8935158 
	-17.611523 8.2007398 
	-18.60205 -9.3913006 -18.873745 -26.954359 -18.875023 -27.113523 -18.875779 -27.144321 
	-18.876099 -27.147718 -18.87634 -27.148139 -18.875913 -27.143691 -18.875209 -27.088703 
	-18.87386 -26.903139 -17.667154 6.5273427 -17.660088 6.6102318 -17.641356 7.2069206 
	-17.603905 8.4313478 -17.503795 11.349788 -1.2214952 175.84461 -17.474614 11.99 
	-17.552984 9.8968263 
	-18.601294 -9.3605027 -18.872989 -26.923561 -18.874268 -27.082725 -18.875023 -27.113523 
	-18.875344 -27.11692 -18.875585 -27.117342 -18.875158 -27.112893 -18.874454 -27.057905 
	-18.873104 -26.872341 -17.677731 6.1881227 -17.672215 6.2182262 -17.657936 6.6579808 
	-17.63344 7.4530941 -17.587061 8.8935158 -17.474614 11.99 -1.2215541 175.69589 
	-17.417685 13.352102 
	-18.600016 -9.2013387 -18.871711 -26.764397 -18.872989 -26.923561 -18.873745 -26.954359 
	-18.874065 -26.957756 -18.874306 -26.958178 -18.873879 -26.953729 -18.873175 -26.898741 
	-18.871826 -26.713177 -17.680955 6.2052154 -17.675351 6.2483628 -17.663838 6.5802574 
	-17.644185 7.205085 -17.611523 8.2007398 -17.552984 9.8968263 -17.417685 13.352102 
	-1.2189802 175.38866 
0.2 -1.1009545 173.51485 -18.603203 -12.253164 -18.605484 -12.463577 -18.606919 -12.503492 
	-18.60753 -12.508215 -18.608017 -12.508997 -18.607266 -12.504206 -18.606011 -12.429887 
	-18.60365 -12.182082 -18.60365 -12.182082 -18.606011 -12.429886 -18.607266 -12.504206 
	-18.608017 -12.508997 -18.60753 -12.508214 -18.606919 -12.503491 -18.605484 -12.463576 
	-18.603203 -12.253164 
	-18.603203 -12.253164 -1.2939641 174.02185 -16.793315 15.293677 -16.988941 11.038579 
	-17.073663 8.9351693 -17.120811 7.6977969 -17.148794 6.9194126 -17.165033 6.5104596 
	-17.1727 6.4685848 -19.022816 -35.328674 -19.025177 -35.576479 -19.026432 -35.650798 
	-19.027183 -35.655589 -19.026697 -35.654807 -19.026085 -35.650084 -19.02465 -35.610169 
	-19.022369 -35.399756 
	-18.605484 -12.463577 -16.793315 15.293677 -1.2982456 174.4392 -16.876769 13.610237 
	-17.038616 9.7854943 -17.105676 7.9928584 -17.140765 7.0010313 -17.161072 6.4542913 
	-17.168637 6.4319388 -19.025097 -35.539086 -19.027458 -35.786891 -19.028713 -35.861211 
	-19.029464 -35.866002 -19.028978 -35.865219 -19.028366 -35.860496 -19.026932 -35.820581 
	-19.02465 -35.610169 
	-18.606919 -12.503492 -16.988941 11.038579 -16.876769 13.610237 -1.2981327 174.63989 
	-16.91943 12.825035 -17.063377 9.2067715 -17.117203 7.6824104 -17.144016 6.9399183 
	-17.153841 6.8539126 -19.026531 -35.579001 -19.028892 -35.826806 -19.030147 -35.901126 
	-19.030898 -35.905917 -19.030412 -35.905134 -19.0298 -35.900411 -19.028366 -35.860496 
	-19.026085 -35.650084 
	-18.60753 -12.508215 -17.073663 8.9351693 -17.038616 9.7854943 -16.91943 12.825035 
	-1.2976506 174.72895 -16.934766 12.544599 -17.06431 9.1963038 -17.110195 7.9089157 
	-17.126807 7.6110549 -19.027143 -35.583724 -19.029504 -35.831529 -19.030759 -35.905849 
	-19.03151 -35.91064 -19.031024 -35.909857 -19.030412 -35.905134 -19.028978 -35.865219 
	-19.026697 -35.654807 