! AWR Design Environment (6954) Tue Jul 07 12:52:29 2015
! Simulator: Linear circuit simulator
! Ports: 2, Freqs: 203
# GHz S MA R 50
!-----------------------------------------------------------------------------
!Freq             MagS11           AngS11           MagS21           AngS21           MagS12           AngS12           MagS22           AngS22
 0                0.000970662457   -0               0.999029298      -0               0.999029298      -0               0.000970662518   -0              
 0.0001           0.00112438729   -30.1531193       0.999026401     -0.0340941287     0.999026401     -0.0340941287     0.00112357061   -30.084353       
 0.001            0.00614660901   -81.2120598       0.998998928     -0.363953454      0.998998928     -0.363953454      0.00612824311   -81.2545601      
 0.1              0.518909284     -121.315797       0.853399065     -32.8068827       0.853399065     -32.8068827       0.517188119     -124.173546      
 0.2              0.771172303     -140.700877       0.634940805     -53.5507439       0.634940805     -53.5507439       0.768452114     -146.36838       
 0.3              0.87533353      -151.479251       0.481620573     -65.7197949       0.481620573     -65.7197949       0.872085843     -159.956098      
 0.4              0.923168147     -157.933846       0.382281035     -73.5741089       0.382281035     -73.5741089       0.919584452     -169.221603      
 0.5              0.948134719     -162.148439       0.315530079     -79.1934173       0.315530079     -79.1934173       0.944297887     -176.250261      
 0.6              0.962573179     -165.098639       0.268455575     -83.5524865       0.268455575     -83.5524865       0.958524957      177.980748      
 0.7              0.971600795     -167.27702        0.233830843     -87.1439837       0.233830843     -87.1439837       0.967365529      172.977269      
 0.8              0.977593027     -168.953468       0.207480918     -90.2382422       0.207480918     -90.2382422       0.973186733      168.467833      
 0.9              0.981760377     -170.28661        0.186874893     -92.9945006       0.186874893     -92.9945006       0.977194599      164.292213      
 1                0.984768009     -171.375228       0.170405684     -95.5122498       0.170405684     -95.5122498       0.980051633      160.349994      
 1.1              0.987004523     -172.283837       0.157010287     -97.8567757       0.157010287     -97.8567757       0.98214471       156.574986      
 1.2              0.988708676     -173.056266       0.14596049      -100.072733       0.14596049      -100.072733       0.983711366      152.921623      
 1.3              0.990033443     -173.723292       0.136742254     -102.191778       0.136742254     -102.191778       0.984903646      149.357318      
 1.4              0.991080358     -174.307146       0.128983366     -104.237072       0.128983366     -104.237072       0.985822322      145.857941      
 1.5              0.991918867     -174.824276       0.122408323     -106.226056       0.122408323     -106.226056       0.986536177      142.405042      
 1.6              0.992597702     -175.28711        0.116809396     -108.172215       0.116809396     -108.172215       0.987093336      138.984064      
 1.7              0.99315182      -175.705214       0.112027465     -110.086245       0.112027465     -110.086245       0.987528174      135.583178      
 1.8              0.993606769     -176.08607        0.107939024     -111.976846       0.107939024     -111.976846       0.987865667      132.192471      
 1.9              0.993981521     -176.435617       0.104447178     -113.851268       0.104447178     -113.851268       0.988124207      128.80339       
 2                0.994290347     -176.758629       0.101475276     -115.715709       0.101475276     -115.715709       0.988317466      125.408327      
 2.1              0.994544095     -177.058994       0.0989623383    -117.575605       0.0989623383    -117.575605       0.988455658      122.00032       
 2.2              0.994751058     -177.339908       0.0968597437    -119.435846       0.0968597437    -119.435846       0.988546404      118.572809      
 2.3              0.994917603     -177.604028       0.0951287412    -121.300949       0.0951287412    -121.300949       0.988595334      115.119447      
 2.4              0.9950486       -177.853583       0.093738649     -123.175195       0.093738649     -123.175195       0.988606511      111.633937      
 2.5              0.995147737     -178.090459       0.0926654869    -125.062745       0.0926654869    -125.062745       0.988582724      108.109888      
 2.6              0.995217741     -178.316266       0.0918909633    -126.96774        0.0918909633    -126.96774        0.988525689      104.540673      
 2.7              0.99526054      -178.53239        0.0914017229    -128.894398       0.0914017229    -128.894398       0.988436183      100.919298      
 2.8              0.995277369     -178.740031       0.0911888072    -130.8471         0.0911888072    -130.8471         0.988314121      97.2382607      
 2.9              0.995268843     -178.940239       0.0912472744    -132.830487       0.0912472744    -132.830487       0.988158592      93.4893991      
 3                0.995234995     -179.133938       0.0915759868    -134.84956        0.0915759868    -134.84956        0.987967846      89.6637128      
 3.1              0.995175287     -179.321947       0.0921774619    -136.909778       0.0921774619    -136.909778       0.987739254      85.7511826      
 3.2              0.995088601     -179.504996       0.0930578912    -139.017193       0.0930578912    -139.017193       0.987469221      81.7405315      
 3.3              0.994973195     -179.683741       0.0942272257    -141.178584       0.0942272257    -141.178584       0.987153056      77.6189569      
 3.4              0.994826636     -179.858773       0.0956993675    -143.401628       0.0956993675    -143.401628       0.986784796      73.3718035      
 3.5              0.99464571       179.969377       0.0974924561    -145.695103       0.0974924561    -145.695103       0.986356969      68.9821647      
 3.6              0.994426285      179.800227       0.0996292387    -148.06913        0.0996292387    -148.06913        0.985860284      64.4303986      
 3.7              0.994163142      179.63335        0.102137524     -150.535468       0.102137524     -150.535468       0.985283239      59.6935334      
 3.8              0.993849757      179.468372       0.105050735     -153.107893       0.105050735     -153.107893       0.984611617      54.7445089      
 3.9              0.993478024      179.304982       0.108408425     -155.802626       0.108408425     -155.802626       0.983827859      49.5512859      
 4                0.993037927      179.142949       0.112256825     -158.638899       0.112256825     -158.638899       0.982910296      44.0756965      
 4.1              0.992517142      178.982145       0.116649188     -161.639616       0.116649188     -161.639616       0.981832224      38.2720468      
 4.2              0.991900609      178.822594       0.121645741     -164.832173       0.121645741     -164.832173       0.980560841      32.0854039      
 4.3              0.991170107      178.664531       0.127312802     -168.249409       0.127312802     -168.249409       0.979056155      25.4495484      
 4.4              0.990303965      178.508508       0.133720368     -171.930689       0.133720368     -171.930689       0.977270042      18.2845908      
 4.5              0.989277126      178.355541       0.140937139     -175.923035       0.140937139     -175.923035       0.975145958      10.4943938      
 4.6              0.988062088      178.207322       0.149020789      179.717861       0.149020789      179.717861       0.972620288      1.96407658      
 4.7              0.986631755      178.066451       0.157999618      174.927121       0.157999618      174.927121       0.969627351     -7.44160133      
 4.8              0.984965103      177.936818       0.167845365      169.631562       0.167845365      169.631562       0.966110599     -17.8773356      
 4.9              0.983058307      177.823886       0.178428766      163.753105       0.178428766      163.753105       0.962045289     -29.5112523      
 5                0.980942994      177.734737       0.18945913       157.216797       0.18945913       157.216797       0.957477308     -42.509237       
 5.1              0.978711423      177.677447       0.200416022      149.965803       0.200416022      149.965803       0.95257917      -57.0039378      
 5.2              0.976541189      177.659177       0.210502585      141.984727       0.210502585      141.984727       0.947709336     -73.0442372      
 5.3              0.974699497      177.682663       0.218678035      133.328414       0.218678035      133.328414       0.94343255      -90.5298363      
 5.4              0.973498594      177.742062       0.22383345       124.14552        0.22383345       124.14552        0.940436036     -109.154093      
 5.5              0.973192956      177.821055       0.225111194      114.678972       0.225111194      114.678972       0.939311251     -128.397403      
 5.6              0.973863823      177.896293       0.222233235      105.230364       0.222233235      105.230364       0.940291984     -147.60495       
 5.7              0.975375678      177.945489       0.215624386      96.0965065       0.215624386      96.0965065       0.943138144     -166.131862      
 5.8              0.97744263       177.954849       0.206236193      87.5084026       0.206236193      87.5084026       0.947263278      176.516952      
 5.9              0.979749658      177.921193       0.195201337      79.6008003       0.195201337      79.6008003       0.951995218      160.620084      
 6                0.982076364      177.85096        0.183369239      72.2994709       0.183369239      72.2994709       0.956846646      146.015759      
 6.1              0.98423924       177.749372       0.171609009      65.7149855       0.171609009      65.7149855       0.961414603      132.91452       
 6.2              0.98615872       177.62502        0.160422495      59.7893414       0.160422495      59.7893414       0.965512222      121.181641      
 6.3              0.987814995      177.48518        0.150074954      54.4450383       0.150074954      54.4450383       0.96908322       110.646087      
 6.4              0.989221084      177.335304       0.140671         49.6020722       0.140671         49.6020722       0.972144784      101.135724      
 6.5              0.990404561      177.179188       0.132217563      45.1859293       0.132217563      45.1859293       0.97474808       92.492996       
 6.6              0.991396999      177.019335       0.124668385      41.1308943       0.124668385      41.1308943       0.97695507       84.5807616      
 6.7              0.992228697      176.857322       0.117952264      37.3807364       0.117952264      37.3807364       0.978826671      77.2828809      
 6.8              0.992926485      176.69409        0.111989676      33.8881387       0.111989676      33.8881387       0.980417571      70.5024415      
 6.9              0.993513136      176.530155       0.106701886      30.6136206       0.106701886      30.6136206       0.981774627      64.1591434      
 7                0.994007532      176.365754       0.1020155        27.5243401       0.1020155        27.5243401       0.982936985      58.1865818      
 7.1              0.994425133      176.200945       0.0978644043     24.5929737       0.0978644043     24.5929737       0.98393687       52.5297908      
 7.2              0.99477851       176.035672       0.0941902652     21.7967386       0.0941902652     21.7967386       0.984800636      47.1431463      
 7.3              0.995077853      175.869803       0.0909422974     19.1165668       0.0909422974     19.1165668       0.985549733      41.9886177      
 7.4              0.995331418      175.703163       0.0880766716     16.5364214       0.0880766716     16.5364214       0.986201631      37.0343427      
 7.5              0.995632053      175.521087       0.0845555261     14.1813655       0.0845555261     14.1813655       0.986893429      32.5451907      
 7.6              0.995808685      175.352464       0.0823690838     11.7692039       0.0823690838     11.7692039       0.987385642      27.92761        
 7.7              0.995956838      175.182371       0.080463043      9.42184311       0.080463043      9.42184311       0.98781719       23.4408078      
 7.8              0.99607996       175.010567       0.0788148915     7.13087975       0.0788148915     7.13087975       0.988195592      19.0683324      
 7.9              0.996180834      174.836801       0.077405787      4.88901586       0.077405787      4.88901586       0.988526977      14.7959551      
 8                0.996261478      174.660844       0.0762228559     2.69038087       0.0762228559     2.69038087       0.988815868      10.6122611      
 8.1              0.996323849      174.482412       0.0752509497     0.52883478       0.0752509497     0.52883478       0.989066689      6.50539736      
 8.2              0.996369355      174.301225       0.0744793706    -1.6007577        0.0744793706    -1.6007577        0.989282721      2.46550314      
 8.3              0.996399007      174.117002       0.0739004819    -3.70289738       0.0739004819    -3.70289738       0.989466438     -1.51601087      
 8.4              0.996413504      173.929446       0.0735088755    -5.78168298       0.0735088755    -5.78168298       0.98961969      -5.44691271      
 8.5              0.996413157      173.738179       0.0733025659    -7.84096949       0.0733025659    -7.84096949       0.989743651     -9.33437388      
 8.6              0.996398068      173.542853       0.0732808435    -9.88430704       0.0732808435    -9.88430704       0.989839054     -13.1849917      
 8.7              0.996368214      173.343188       0.0734432357    -11.9149306       0.0734432357    -11.9149306       0.989906301     -17.0048251      
 8.8              0.996323182      173.138802       0.073792818     -13.9360463       0.073792818     -13.9360463       0.989945174     -20.7997368      
 8.9              0.996262264      172.929285       0.0743349169    -15.9507865       0.0743349169    -15.9507865       0.989954939     -24.5753954      
 9                0.996184422      172.714184       0.0750772846    -17.9622714       0.0750772846    -17.9622714       0.989934311     -28.3373885      
 9.1              0.996088247      172.493007       0.0760303357    -19.9736645       0.0760303357    -19.9736645       0.989881394     -32.0913232      
 9.2              0.995971896      172.265203       0.0772074896    -21.9882387       0.0772074896    -21.9882387       0.989793594     -35.8429433      
 9.3              0.995833001      172.030161       0.0786256093    -24.0094432       0.0786256093    -24.0094432       0.989667483     -39.598248       
 9.4              0.995668557      171.787192       0.0803055823    -26.0409837       0.0803055823    -26.0409837       0.989498632     -43.36363        
 9.5              0.995474759      171.535517       0.0822730669    -28.0869185       0.0822730669    -28.0869185       0.989281368     -47.1460432      
 9.6              0.995246795      171.274241       0.0845594619    -30.151772        0.0845594619    -30.151772        0.989008464     -50.9531973      
 9.7              0.994978552      171.002337       0.0872031903    -32.2406803       0.0872031903    -32.2406803       0.988670682     -54.7938081      
 9.8              0.994662221      170.718605       0.0902513301    -34.3595735       0.0902513301    -34.3595735       0.988256187     -58.6779101      
 9.9              0.994287743      170.421637       0.0937618315    -36.5154114       0.0937618315    -36.5154114       0.987749696     -62.6172598      
 10               0.993842032      170.109762       0.097806429     -38.7165009       0.097806429     -38.7165009       0.987131291     -66.6258819      
 10.1             0.993307857      169.780976       0.102474593     -40.972919        0.102474593     -40.972919        0.986374723     -70.720798       
 10.2             0.992662222      169.432847       0.107878923     -43.2970891       0.107878923     -43.2970891       0.985444946     -74.9230224      
 10.3             0.991873953      169.06239        0.11416263      -45.7045922       0.11416263      -45.7045922       0.984294425     -79.2589705      
 10.4             0.990900041      168.665899       0.121510098     -48.2153246       0.121510098     -48.2153246       0.982857557     -83.7624824      
 10.5             0.98967996       168.238718       0.130161929     -50.855169        0.130161929     -50.855169        0.981042012     -88.4777643      
 10.6             0.988126607      167.774925       0.140436962     -53.6584962       0.140436962     -53.6584962       0.978714847     -93.4638325      
 10.7             0.986111444      167.266922       0.15276485      -56.6719827       0.15276485      -56.6719827       0.975679758     -98.8013789      
 10.8             0.983439366      166.704909       0.167735169     -59.9605986       0.167735169     -59.9605986       0.971638433     -104.60371       
 10.9             0.979804821      166.076314       0.186172182     -63.6172845       0.186172182     -63.6172845       0.966122797     -111.034807      
 11               0.974712707      165.365491       0.209248771     -67.7790689       0.209248771     -67.7790689       0.958372011     -118.340319      
 11.1             0.968288365      164.551237       0.234899446     -72.0077368       0.234899446     -72.0077368       0.9488361       -125.638123      
 11.2             0.957640506      163.622732       0.272085912     -77.7526167       0.272085912     -77.7526167       0.932620755     -135.735385      
 11.3             0.941022346      162.586171       0.321069976     -84.991606        0.321069976     -84.991606        0.907157938     -148.601848      
 11.4             0.914351348      161.555922       0.385639648     -94.543572        0.385639648     -94.543572        0.865842132     -166.012665      
 11.5             0.872403021      161.009016       0.466818983     -107.660984       0.466818983     -107.660984       0.79951007       168.796847      
 11.6             0.817750515      162.299713       0.55074585      -125.680158       0.55074585      -125.680158       0.710006619      130.652223      
 11.7             0.784769081      166.782384       0.593582562     -148.121759       0.593582562     -148.121759       0.65487858       77.1822332      
 11.8             0.811288843      171.496835       0.559818967     -170.678658       0.559818967     -170.678658       0.703040124      23.1146054      
 11.9             0.864264677      173.098117       0.481016668      171.054688       0.481016668      171.054688       0.791724155     -15.9207854      
 12               0.906913036      172.679502       0.401840617      157.710519       0.401840617      157.710519       0.859488146     -41.6770282      
 12.1             0.9345884        171.64753        0.33799858       147.984161       0.33799858       147.984161       0.902157865     -59.402488       
 12.2             0.952007038      170.535543       0.289355217      140.610678       0.289355217      140.610678       0.928565798     -72.4353214      
 12.3             0.963230871      169.482674       0.252406385      134.751845       0.252406385      134.751845       0.945421461     -82.6150821      
 12.4             0.970725634      168.507837       0.223962504      129.892472       0.223962504      129.892472       0.956622116     -90.9697325      
 12.5             0.975907653      167.598956       0.201688732      125.714296       0.201688732      125.714296       0.964355752     -98.1003211      
 12.6             0.97960059       166.738628       0.183958401      122.014997       0.183958401      122.014997       0.969877341     -104.375751      
 12.7             0.982298519      165.910802       0.169641799      118.661493       0.169641799      118.661493       0.973932933     -110.032751      
 12.8             0.984308201      165.102029       0.157944812      115.563243       0.157944812      115.563243       0.97698298      -115.229276      
 12.9             0.985826488      164.301223       0.148299601      112.656665       0.148299601      112.656665       0.97932189      -120.07436       
 13               0.986983485      163.499133       0.140292987      109.895788       0.140292987      109.895788       0.981143955     -124.645484      
 13.1             0.987867419      162.687835       0.133619307      107.246449       0.133619307      107.246449       0.982581059     -128.999135      
 13.2             0.988539395      161.860308       0.128049176      104.682591       0.128049176      104.682591       0.983724934     -133.177404      
 13.3             0.989042446      161.010106       0.12340839       102.183835       0.12340839       102.183835       0.984640743     -137.212271      
 13.4             0.989407208      160.131093       0.119563451      99.733827        0.119563451      99.733827        0.985375607     -141.128458      
 13.5             0.989655582      159.217224       0.116411501      97.3190965       0.116411501      97.3190965       0.985964084     -144.94537       
 13.6             0.989803121      158.262367       0.113873237      94.9282472       0.113873237      94.9282472       0.986431783     -148.678447      
 13.7             0.989860623      157.260135       0.111887815      92.5513524       0.111887815      92.5513524       0.986797788     -152.340136      
 13.8             0.989835188      156.203723       0.11040924       90.1795067       0.11040924       90.1795067       0.987076306     -155.940582      
 13.9             0.989730914      155.085754       0.109403742      87.8044666       0.109403742      87.8044666       0.987277797     -159.488148      
 14               0.98954927       153.898104       0.108848505      85.4181133       0.108848505      85.4181133       0.987409724     -162.990261      
 14.1             0.98928948       152.631709       0.108729211      83.012874        0.108729211      83.012874        0.987477112     -166.452444      
 14.2             0.988948567      151.276358       0.109039657      80.5809629       0.109039657      80.5809629       0.987482936     -169.879533      
 14.3             0.988521285      149.820431       0.109781549      78.1141713       0.109781549      78.1141713       0.987428276     -173.275839      
 14.4             0.987999977      148.250605       0.110964215      75.6037408       0.110964215      75.6037408       0.987312397     -176.645093      
 14.5             0.987374292      146.55148        0.112604684      73.0401077       0.112604684      73.0401077       0.987132734     -179.990593      
 14.6             0.986630752      144.705141       0.114728087      70.4126369       0.114728087      70.4126369       0.986884755      176.684719      
 14.7             0.98574214       142.731923       0.117514748      67.6874516       0.117514748      67.6874516       0.986536817      173.292161      
 14.8             0.984708775      140.527847       0.120707066      64.8979996       0.120707066      64.8979996       0.986129492      170.004915      
 14.9             0.983493317      138.103037       0.124502885      62.0066088       0.124502885      62.0066088       0.985626966      166.736667      
 15               0.982061048      135.421803       0.128973773      58.9914614       0.128973773      58.9914614       0.985012387      163.479912      
 15.1             0.980369778      132.442386       0.134198292      55.8305496       0.134198292      55.8305496       0.98426518       160.232542      
 15.2             0.978366791      129.114777       0.140271376      52.4982359       0.140271376      52.4982359       0.983358762      156.993224      
 15.3             0.975986901      125.378364       0.147301742      48.9635207       0.147301742      48.9635207       0.982259674      153.760272      
 15.4             0.973149836      121.159751       0.155413632      45.1893548       0.155413632      45.1893548       0.980925727      150.532258      
 15.5             0.969758143      116.370082       0.16474458       41.1314994       0.16474458       41.1314994       0.979304366      147.308177      
 15.6             0.965696474      110.902171       0.175439199      36.737407        0.175439199      36.737407        0.977331402      144.087723      
 15.7             0.960834515      104.627964       0.187635567      31.9454245       0.187635567      31.9454245       0.974931148      140.871722      
 15.8             0.955037654      97.3973661       0.201439506      26.6848771       0.201439506      26.6848771       0.972019866      137.66278       
 15.9             0.948192407      89.0405533       0.216880058      20.8780468       0.216880058      20.8780468       0.968515998      134.466096      
 16               0.940260793      79.3783678       0.233824641      14.4467069       0.233824641      14.4467069       0.964366384      131.291295      
 16.1             0.93135436       68.2426586       0.251921568      7.32109455       0.251921568      7.32109455       0.95957699       128.150312      
 16.2             0.921855486      55.5194367       0.270466345     -0.538849323      0.270466345     -0.538849323      0.954277955      125.058537      
 16.3             0.912517824      41.2120411       0.28834972      -9.11709386       0.28834972      -9.11709386       0.948782099      122.030255      
 16.4             0.904453013      25.5139324       0.304142307     -18.3141443       0.304142307     -18.3141443       0.943598383      119.070554      
 16.5             0.898884878      8.85436641       0.316395107     -27.9339514       0.316395107     -27.9339514       0.939338108      116.165768      
 16.6             0.896685759     -8.13358848       0.324105271     -37.702401        0.324105271     -37.702401        0.936503397      113.279045      
 16.7             0.897961702     -24.7410818       0.32710881      -47.3204764       0.32710881      -47.3204764       0.935266164      110.357166      
 16.8             0.902014283     -40.3533801       0.326139018     -56.5305479       0.326139018     -56.5305479       0.935398647      107.345731      
 16.9             0.907696988     -54.5694508       0.322528554     -65.1634659       0.322528554     -65.1634659       0.936397429      104.201725      
 17               0.913861172     -67.2240345       0.317786235     -73.1499862       0.317786235     -73.1499862       0.937682799      100.895639      
 17.1             0.919619137     -78.3365247       0.313289893     -80.5041583       0.313289893     -80.5041583       0.93873792       97.4047809      
 17.2             0.924384412     -88.0377762       0.310175278     -87.2967945       0.310175278     -87.2967945       0.939145468      93.7034231      
 17.3             0.927784252     -96.5093538       0.309375569     -93.6329309       0.309375569     -93.6329309       0.9385496        89.7530688      
 17.4             0.929533702     -103.945272       0.311739097     -99.6390185       0.311739097     -99.6390185       0.936578853      85.4924523      
 17.5             0.929304651     -110.533151       0.31818634      -105.4609         0.31818634      -105.4609         0.932739222      80.8242483      
 17.6             0.926576281     -116.448282       0.329905018     -111.272962       0.329905018     -111.272962       0.926253763      75.5931577      
 17.7             0.920411111     -121.855167       0.348619446     -117.301917       0.348619446     -117.301917       0.915776299      69.5449254      
 17.8             0.909462518     -126.865686       0.376072758     -123.804059       0.376072758     -123.804059       0.899302691      62.3256973      
 17.9             0.890269912     -131.652877       0.416781987     -131.318828       0.416781987     -131.318828       0.87196586       53.14137        
 18               0.856236634     -136.28155        0.476854841     -140.720178       0.476854841     -140.720178       0.824055679      40.4964581      
 18.1             0.79455825      -140.377491       0.563368859     -153.618046       0.563368859     -153.618046       0.734957674      21.0708021      
 18.2             0.691630456     -141.34049        0.67090974      -172.751343       0.67090974      -172.751343       0.57215773      -13.8746239      
 18.3             0.614293978     -130.71018        0.730643527      158.317541       0.730643527      158.317541       0.412730726     -93.0851138      
 18.4             0.719951869     -121.241495       0.637661645      128.835072       0.637661645      128.835072       0.582357595     -173.364588      
 18.5             0.847507161     -123.24519        0.481776703      106.797686       0.481776703      106.797686       0.775975735      146.556166      
 18.6             0.916481717     -127.683139       0.357227066      92.3892689       0.357227066      92.3892689       0.875868355      124.504591      
 18.7             0.950419096     -131.606917       0.27208181       82.6553683       0.27208181       82.6553683       0.924546283      110.531556      
 18.8             0.968120072     -134.804278       0.214011813      75.5891281       0.214011813      75.5891281       0.949979313      100.670767      
 18.9             0.978100824     -137.438064       0.173138284      70.1122792       0.173138284      70.1122792       0.964382754      93.1249449      