!AWR Design Environment (3650) Fri Nov 02 08:09:43 2007
!DC added
!freq-unit  param-type  data-format  keyword  impedance-ohms
# GHz           S          MA           R         50
!-----------------------------------------------------------------------------
0.00	         	0.5			180		0.5		0		0.5		0		0.5		0
			0.5			0		0.5		180		0.5		0		0.5		0
			0.5			0		0.5		0		0.5		-180		0.5		0
			0.5			0		0.5		0		0.5		0		0.5		180

 0.05         0.50004     -179.66       0.49999     -0.44797      0.49999     -0.4681       0.49999     -0.448       
              0.49999     -0.44797      0.50004     -179.67       0.49998     -0.41151      0.49999     -0.51458     
              0.49999     -0.4681       0.49998     -0.41151      0.50005     -179.59       0.49998     -0.41089     
              0.49999     -0.448        0.49999     -0.51458      0.49998     -0.41089      0.50004     -179.67      

 0.2          0.50053     -178.66       0.49982     -1.7915       0.49981     -1.8721       0.49982     -1.7916      
              0.49982     -1.7915       0.50057     -178.7        0.49972     -1.6456       0.49986     -2.058       
              0.49981     -1.8721       0.49972     -1.6456       0.50071     -178.37       0.49972     -1.6432      
              0.49982     -1.7916       0.49986     -2.058        0.49972     -1.6432       0.50057     -178.7       

 0.4          0.50207     -177.33       0.4993      -3.5808       0.49928     -3.742        0.4993      -3.5811      
              0.4993      -3.5808       0.50226     -177.42       0.49893     -3.289        0.49945     -4.1144      
              0.49928     -3.742        0.49893     -3.289        0.5028      -176.75       0.49893     -3.284       
              0.4993      -3.5811       0.49945     -4.1144       0.49893     -3.284        0.50226     -177.41      

 0.6          0.5046      -176.04       0.49844     -5.3659       0.4984      -5.6078       0.49844     -5.3663      
              0.49844     -5.3659       0.50502     -176.17       0.49762     -4.9279       0.4988      -6.1674      
              0.4984      -5.6078       0.49762     -4.9279       0.50623     -175.19       0.49761     -4.9204      
              0.49844     -5.3663       0.4988      -6.1674       0.49761     -4.9204       0.50503     -176.16      

 0.8          0.50809     -174.78       0.49726     -7.1447       0.49718     -7.4674       0.49726     -7.1453      
              0.49726     -7.1447       0.50883     -174.97       0.4958      -6.5601       0.49789     -8.2157      
              0.49718     -7.4674       0.4958      -6.5601       0.51096     -173.68       0.49579     -6.5501      
              0.49726     -7.1453       0.49789     -8.2157       0.49579     -6.5501       0.50884     -174.96      

 1            0.5125      -173.58       0.49576     -8.9152       0.49564     -9.319        0.49576     -8.9159      
              0.49576     -8.9152       0.51362     -173.83       0.49348     -8.1837       0.49675     -10.258      
              0.49564     -9.319        0.49348     -8.1837       0.51689     -172.25       0.49346     -8.1712      
              0.49576     -8.9159       0.49675     -10.258       0.49346     -8.1712       0.51363     -173.81      

 1.2          0.51775     -172.44       0.49394     -10.676       0.49377     -11.161       0.49394     -10.676      
              0.49394     -10.676       0.51933     -172.76       0.49067     -9.7965       0.49537     -12.292      
              0.49377     -11.161       0.49067     -9.7965       0.52395     -170.9        0.49065     -9.7815      
              0.49394     -10.676       0.49537     -12.292       0.49065     -9.7815       0.51934     -172.75      

 1.4          0.52378     -171.36       0.49183     -12.424       0.49159     -12.991       0.49183     -12.425      
              0.49183     -12.424       0.52587     -171.77       0.48739     -11.397       0.49378     -14.317      
              0.49159     -12.991       0.48739     -11.397       0.53204     -169.66       0.48736     -11.379      
              0.49183     -12.425       0.49378     -14.317       0.48736     -11.379       0.52589     -171.76      

 1.6          0.53052     -170.37       0.48943     -14.159       0.48912     -14.807       0.48943     -14.16       
              0.48943     -14.159       0.53316     -170.88       0.48366     -12.982       0.49199     -16.332      
              0.48912     -14.807       0.48366     -12.982       0.54104     -168.53       0.48362     -12.962      
              0.48943     -14.16        0.49199     -16.332       0.48362     -12.962       0.53319     -170.86      

 1.8          0.5379      -169.45       0.48676     -15.878       0.48637     -16.609       0.48676     -15.879      
              0.48676     -15.878       0.54111     -170.07       0.47949     -14.552       0.49002     -18.336      
              0.48637     -16.609       0.47949     -14.552       0.55085     -167.51       0.47944     -14.529      
              0.48676     -15.879       0.49002     -18.336       0.47944     -14.529       0.54115     -170.05      

 2            0.54583     -168.62       0.48383     -17.58        0.48335     -18.394       0.48383     -17.582      
              0.48383     -17.58        0.54963     -169.37       0.4749      -16.103       0.48788     -20.328      
              0.48335     -18.394       0.4749      -16.103       0.56134     -166.6        0.47484     -16.078      
              0.48383     -17.582       0.48788     -20.328       0.47484     -16.078       0.54967     -169.35      

 2.2          0.55424     -167.87       0.48065     -19.264       0.48007     -20.162       0.48065     -19.266      
              0.48065     -19.264       0.55862     -168.76       0.46991     -17.636       0.4856      -22.308      
              0.48007     -20.162       0.46991     -17.636       0.57242     -165.81       0.46985     -17.607      
              0.48065     -19.266       0.4856      -22.308       0.46985     -17.607       0.55868     -168.73      

 2.4          0.56305     -167.21       0.47726     -20.929       0.47657     -21.911       0.47726     -20.931      
              0.47726     -20.929       0.56801     -168.24       0.46455     -19.147       0.48319     -24.274      
              0.47657     -21.911       0.46455     -19.147       0.58397     -165.12       0.46447     -19.116      
              0.47726     -20.931       0.48319     -24.274       0.46447     -19.116       0.56807     -168.22      

 2.6          0.57217     -166.62       0.47365     -22.573       0.47285     -23.64        0.47365     -22.575      
              0.47365     -22.573       0.57769     -167.82       0.45884     -20.636       0.48068     -26.226      
              0.47285     -23.64        0.45884     -20.636       0.5959      -164.54       0.45875     -20.602      
              0.47365     -22.575       0.48068     -26.226       0.45875     -20.602       0.57776     -167.8       

 2.8          0.58156     -166.11       0.46986     -24.195       0.46894     -25.348       0.46986     -24.198      
              0.46986     -24.195       0.5876      -167.5        0.4528      -22.103       0.4781      -28.165      
              0.46894     -25.348       0.4528      -22.103       0.6081      -164.06       0.4527      -22.066      
              0.46986     -24.198       0.4781      -28.165       0.4527      -22.066       0.58768     -167.47      

 2.9          0.58632     -165.89       0.4679      -24.998       0.46691     -26.194       0.4679      -25          
              0.4679      -24.998       0.59261     -167.36       0.44967     -22.827       0.47678     -29.13       
              0.46691     -26.194       0.44967     -22.827       0.61428     -163.86       0.44955     -22.788      
              0.4679      -25           0.47678     -29.13        0.44955     -22.788       0.59269     -167.34      

 2.95         0.58872     -165.78       0.4669      -25.398       0.46588     -26.614       0.4669      -25.4        
              0.4669      -25.398       0.59512     -167.31       0.44807     -23.187       0.47612     -29.611      
              0.46588     -26.614       0.44807     -23.187       0.61738     -163.77       0.44796     -23.147      
              0.4669      -25.4         0.47612     -29.611       0.44796     -23.147       0.59521     -167.28      

 3            0.59113     -165.68       0.46589     -25.795       0.46484     -27.034       0.4659      -25.798      
              0.46589     -25.795       0.59764     -167.26       0.44646     -23.545       0.47546     -30.091      
              0.46484     -27.034       0.44646     -23.545       0.62049     -163.68       0.44634     -23.505      
              0.4659      -25.798       0.47546     -30.091       0.44634     -23.505       0.59773     -167.23      

 3.1          0.59597     -165.49       0.46385     -26.587       0.46273     -27.869       0.46386     -26.589      
              0.46385     -26.587       0.6027      -167.17       0.44318     -24.257       0.47413     -31.049      
              0.46273     -27.869       0.44318     -24.257       0.62674     -163.52       0.44305     -24.215      
              0.46386     -26.589       0.47413     -31.049       0.44305     -24.215       0.60279     -167.14      

 3.2          0.60083     -165.32       0.46178     -27.372       0.46058     -28.698       0.46178     -27.375      
              0.46178     -27.372       0.60776     -167.1        0.43983     -24.962       0.4728      -32.003      
              0.46058     -28.698       0.43983     -24.962       0.633       -163.38       0.4397      -24.919      
              0.46178     -27.375       0.4728      -32.003       0.4397      -24.919       0.60786     -167.07      

 3.25         0.60327     -165.24       0.46072     -27.763       0.4595      -29.11        0.46073     -27.765      
              0.46072     -27.763       0.61029     -167.08       0.43813     -25.312       0.47214     -32.479      
              0.4595      -29.11        0.43813     -25.312       0.63614     -163.32       0.43799     -25.268      
              0.46073     -27.765       0.47214     -32.479       0.43799     -25.268       0.61039     -167.05      

 3.3          0.60571     -165.16       0.45967     -28.152       0.4584      -29.522       0.45967     -28.154      
              0.45967     -28.152       0.61282     -167.06       0.43642     -25.661       0.47147     -32.954      
              0.4584      -29.522       0.43642     -25.661       0.63927     -163.27       0.43628     -25.616      
              0.45967     -28.154       0.47147     -32.954       0.43628     -25.616       0.61292     -167.03      

 3.35         0.60815     -165.09       0.4586      -28.539       0.4573      -29.931       0.4586      -28.542      
              0.4586      -28.539       0.61535     -167.04       0.43469     -26.008       0.47081     -33.429      
              0.4573      -29.931       0.43469     -26.008       0.64241     -163.22       0.43454     -25.962      
              0.4586      -28.542       0.47081     -33.429       0.43454     -25.962       0.61546     -167.01      

 3.4          0.6106      -165.02       0.45752     -28.925       0.45619     -30.339       0.45752     -28.928      
              0.45752     -28.925       0.61788     -167.03       0.43295     -26.353       0.47014     -33.903      
              0.45619     -30.339       0.43295     -26.353       0.64555     -163.17       0.4328      -26.307      
              0.45752     -28.928       0.47014     -33.903       0.4328      -26.307       0.61799     -167         

 3.45         0.61305     -164.96       0.45644     -29.31        0.45507     -30.746       0.45644     -29.313      
              0.45644     -29.31        0.62041     -167.02       0.43119     -26.697       0.46948     -34.376      
              0.45507     -30.746       0.43119     -26.697       0.64869     -163.13       0.43103     -26.65       
              0.45644     -29.313       0.46948     -34.376       0.43103     -26.65        0.62051     -166.99      

 3.5          0.6155      -164.9        0.45535     -29.693       0.45394     -31.151       0.45535     -29.696      
              0.45535     -29.693       0.62293     -167.02       0.42941     -27.039       0.46883     -34.848      
              0.45394     -31.151       0.42941     -27.039       0.65182     -163.1        0.42925     -26.991      
              0.45535     -29.696       0.46883     -34.848       0.42925     -26.991       0.62303     -166.99      

 3.55         0.61795     -164.84       0.45425     -30.074       0.4528      -31.555       0.45426     -30.077      
              0.45425     -30.074       0.62544     -167.03       0.42763     -27.379       0.46817     -35.32       
              0.4528      -31.555       0.42763     -27.379       0.65495     -163.06       0.42746     -27.33       
              0.45426     -30.077       0.46817     -35.32        0.42746     -27.33        0.62555     -166.99      

 3.6          0.62039     -164.79       0.45315     -30.454       0.45166     -31.957       0.45315     -30.457      
              0.45315     -30.454       0.62795     -167.03       0.42583     -27.718       0.46752     -35.791      
              0.45166     -31.957       0.42583     -27.718       0.65808     -163.04       0.42566     -27.668      
              0.45315     -30.457       0.46752     -35.791       0.42566     -27.668       0.62806     -167         

 3.65         0.62284     -164.74       0.45204     -30.833       0.45051     -32.358       0.45204     -30.836      
              0.45204     -30.833       0.63045     -167.05       0.42401     -28.055       0.46687     -36.261      
              0.45051     -32.358       0.42401     -28.055       0.66121     -163.01       0.42384     -28.004      
              0.45204     -30.836       0.46687     -36.261       0.42384     -28.004       0.63056     -167.02      

 3.7          0.62528     -164.7        0.45092     -31.209       0.44936     -32.758       0.45093     -31.212      
              0.45092     -31.209       0.63294     -167.06       0.42218     -28.39        0.46623     -36.731      
              0.44936     -32.758       0.42218     -28.39        0.66432     -163          0.42201     -28.339      
              0.45093     -31.212       0.46623     -36.731       0.42201     -28.339       0.63306     -167.03      

 3.75         0.62773     -164.65       0.4498      -31.585       0.44819     -33.155       0.44981     -31.588      
              0.4498      -31.585       0.63543     -167.09       0.42034     -28.724       0.46559     -37.2        
              0.44819     -33.155       0.42034     -28.724       0.66743     -162.98       0.42016     -28.672      
              0.44981     -31.588       0.46559     -37.2         0.42016     -28.672       0.63555     -167.05      

 3.8          0.63017     -164.62       0.44868     -31.958       0.44703     -33.552       0.44868     -31.962      
              0.44868     -31.958       0.6379      -167.11       0.41849     -29.056       0.46496     -37.668      
              0.44703     -33.552       0.41849     -29.056       0.67054     -162.97       0.4183      -29.003      
              0.44868     -31.962       0.46496     -37.668       0.4183      -29.003       0.63802     -167.08      

 3.9          0.63503     -164.55       0.44641     -32.701       0.44467     -34.34        0.44641     -32.705      
              0.44641     -32.701       0.64282     -167.18       0.41475     -29.715       0.46371     -38.603      
              0.44467     -34.34        0.41475     -29.715       0.67672     -162.96       0.41455     -29.659      
              0.44641     -32.705       0.46371     -38.603       0.41455     -29.659       0.64295     -167.14      

 4            0.63987     -164.49       0.44412     -33.438       0.4423      -35.123       0.44412     -33.441      
              0.44412     -33.438       0.64769     -167.26       0.41096     -30.366       0.46249     -39.536      
              0.4423      -35.123       0.41096     -30.366       0.68287     -162.97       0.41075     -30.309      
              0.44412     -33.441       0.46249     -39.536       0.41075     -30.309       0.64782     -167.23      

 4.1          0.6447      -164.45       0.44181     -34.168       0.43991     -35.899       0.44181     -34.172      
              0.44181     -34.168       0.65251     -167.36       0.40713     -31.011       0.4613      -40.468      
              0.43991     -35.899       0.40713     -31.011       0.68898     -162.99       0.40691     -30.952      
              0.44181     -34.172       0.4613      -40.468       0.40691     -30.952       0.65265     -167.33      

 4.2          0.64949     -164.42       0.43949     -34.893       0.4375      -36.67        0.43949     -34.896      
              0.43949     -34.893       0.65728     -167.48       0.40325     -31.649       0.46015     -41.397      
              0.4375      -36.67        0.40325     -31.649       0.69505     -163.03       0.40303     -31.588      
              0.43949     -34.896       0.46015     -41.397       0.40303     -31.588       0.65741     -167.44      

 4.25         0.65187     -164.41       0.43832     -35.252       0.43628     -37.053       0.43832     -35.256      
              0.43832     -35.252       0.65963     -167.54       0.4013      -31.965       0.45959     -41.861      
              0.43628     -37.053       0.4013      -31.965       0.69806     -163.05       0.40108     -31.903      
              0.43832     -35.256       0.45959     -41.861       0.40108     -31.903       0.65977     -167.5       

 4.3          0.65425     -164.4        0.43715     -35.61        0.43507     -37.435       0.43715     -35.614      
              0.43715     -35.61        0.66198     -167.61       0.39934     -32.28        0.45904     -42.325      
              0.43507     -37.435       0.39934     -32.28        0.70106     -163.08       0.39911     -32.217      
              0.43715     -35.614       0.45904     -42.325       0.39911     -32.217       0.66212     -167.57      

 4.4          0.65898     -164.39       0.4348      -36.322       0.43263     -38.194       0.4348      -36.326      
              0.4348      -36.322       0.66661     -167.76       0.3954      -32.904       0.45797     -43.253      
              0.43263     -38.194       0.3954      -32.904       0.70702     -163.14       0.39515     -32.839      
              0.4348      -36.326       0.45797     -43.253       0.39515     -32.839       0.66675     -167.72      

 4.5          0.66367     -164.39       0.43244     -37.028       0.43018     -38.947       0.43244     -37.032      
              0.43244     -37.028       0.67117     -167.92       0.39141     -33.52        0.45696     -44.18       
              0.43018     -38.947       0.39141     -33.52        0.71292     -163.21       0.39116     -33.453      
              0.43244     -37.032       0.45696     -44.18        0.39116     -33.453       0.67131     -167.88      

 4.55         0.66599     -164.4        0.43126     -37.378       0.42895     -39.321       0.43126     -37.382      
              0.43126     -37.378       0.67342     -168.01       0.38941     -33.826       0.45647     -44.643      
              0.42895     -39.321       0.38941     -33.826       0.71585     -163.26       0.38915     -33.758      
              0.43126     -37.382       0.45647     -44.643       0.38915     -33.758       0.67356     -167.97      

 4.6          0.66831     -164.4        0.43007     -37.727       0.42772     -39.694       0.43008     -37.731      
              0.43007     -37.727       0.67565     -168.1        0.3874      -34.13        0.456       -45.106      
              0.42772     -39.694       0.3874      -34.13        0.71876     -163.3        0.38714     -34.061      
              0.43008     -37.731       0.456       -45.106       0.38714     -34.061       0.6758      -168.06      

 4.65         0.67062     -164.41       0.42889     -38.074       0.42648     -40.066       0.42889     -38.079      
              0.42889     -38.074       0.67786     -168.19       0.38538     -34.432       0.45555     -45.569      
              0.42648     -40.066       0.38538     -34.432       0.72166     -163.35       0.38511     -34.362      
              0.42889     -38.079       0.45555     -45.569       0.38511     -34.362       0.67801     -168.15      

 4.7          0.67292     -164.42       0.4277      -38.42        0.42524     -40.436       0.4277      -38.424      
              0.4277      -38.42        0.68004     -168.29       0.38336     -34.733       0.45511     -46.032      
              0.42524     -40.436       0.38336     -34.733       0.72454     -163.4        0.38308     -34.661      
              0.4277      -38.424       0.45511     -46.032       0.38308     -34.661       0.6802      -168.25      

 4.75         0.6752      -164.44       0.42651     -38.764       0.42401     -40.804       0.42651     -38.769      
              0.42651     -38.764       0.68221     -168.39       0.38132     -35.031       0.45468     -46.496      
              0.42401     -40.804       0.38132     -35.031       0.72741     -163.45       0.38104     -34.959      
              0.42651     -38.769       0.45468     -46.496       0.38104     -34.959       0.68236     -168.35      

 4.8          0.67748     -164.45       0.42532     -39.107       0.42277     -41.172       0.42532     -39.112      
              0.42532     -39.107       0.68435     -168.5        0.37928     -35.328       0.45428     -46.959      
              0.42277     -41.172       0.37928     -35.328       0.73026     -163.5        0.379       -35.254      
              0.42532     -39.112       0.45428     -46.959       0.379       -35.254       0.68451     -168.46      

 4.85         0.67974     -164.47       0.42413     -39.448       0.42152     -41.537       0.42413     -39.453      
              0.42413     -39.448       0.68647     -168.61       0.37724     -35.623       0.45389     -47.423      
              0.42152     -41.537       0.37724     -35.623       0.73309     -163.56       0.37695     -35.548      
              0.42413     -39.453       0.45389     -47.423       0.37695     -35.548       0.68663     -168.57      

 4.9          0.68199     -164.49       0.42294     -39.788       0.42028     -41.902       0.42294     -39.793      
              0.42294     -39.788       0.68857     -168.72       0.37519     -35.916       0.45352     -47.887      
              0.42028     -41.902       0.37519     -35.916       0.73591     -163.62       0.37489     -35.84       
              0.42294     -39.793       0.45352     -47.887       0.37489     -35.84        0.68873     -168.68      

 4.95         0.68423     -164.51       0.42174     -40.126       0.41904     -42.264       0.42174     -40.131      
              0.42174     -40.126       0.69064     -168.84       0.37313     -36.208       0.45317     -48.352      
              0.41904     -42.264       0.37313     -36.208       0.7387      -163.68       0.37283     -36.131      
              0.42174     -40.131       0.45317     -48.352       0.37283     -36.131       0.69081     -168.8       

 5            0.68646     -164.54       0.42055     -40.463       0.41779     -42.626       0.42055     -40.468      
              0.42055     -40.463       0.69269     -168.96       0.37106     -36.497       0.45285     -48.817      
              0.41779     -42.626       0.37106     -36.497       0.74148     -163.75       0.37076     -36.419      
              0.42055     -40.468       0.45285     -48.817       0.37076     -36.419       0.69285     -168.92      

 5.05         0.68867     -164.56       0.41935     -40.798       0.41655     -42.986       0.41936     -40.803      
              0.41935     -40.798       0.69471     -169.08       0.36899     -36.785       0.45254     -49.283      
              0.41655     -42.986       0.36899     -36.785       0.74424     -163.81       0.36868     -36.706      
              0.41936     -40.803       0.45254     -49.283       0.36868     -36.706       0.69488     -169.04      

 5.1          0.69087     -164.59       0.41816     -41.132       0.4153      -43.345       0.41816     -41.136      
              0.41816     -41.132       0.69671     -169.21       0.36692     -37.071       0.45226     -49.749      
              0.4153      -43.345       0.36692     -37.071       0.74699     -163.88       0.3666      -36.991      
              0.41816     -41.136       0.45226     -49.749       0.3666      -36.991       0.69688     -169.17      

 5.15         0.69305     -164.62       0.41697     -41.464       0.41406     -43.702       0.41697     -41.469      
              0.41697     -41.464       0.69868     -169.34       0.36484     -37.356       0.452       -50.215      
              0.41406     -43.702       0.36484     -37.356       0.74971     -163.95       0.36452     -37.274      
              0.41697     -41.469       0.452       -50.215       0.36452     -37.274       0.69885     -169.3       

 5.2          0.69523     -164.65       0.41577     -41.794       0.41281     -44.058       0.41577     -41.799      
              0.41577     -41.794       0.70062     -169.48       0.36275     -37.638       0.45177     -50.683      
              0.41281     -44.058       0.36275     -37.638       0.75242     -164.03       0.36243     -37.555      
              0.41577     -41.799       0.45177     -50.683       0.36243     -37.555       0.70079     -169.44      

 5.25         0.69739     -164.68       0.41458     -42.123       0.41156     -44.412       0.41458     -42.129      
              0.41458     -42.123       0.70254     -169.62       0.36066     -37.919       0.45156     -51.151      
              0.41156     -44.412       0.36066     -37.919       0.75511     -164.1        0.36033     -37.834      
              0.41458     -42.129       0.45156     -51.151       0.36033     -37.834       0.70271     -169.58      

 5.3          0.69953     -164.72       0.41339     -42.451       0.41032     -44.766       0.41339     -42.456      
              0.41339     -42.451       0.70442     -169.76       0.35857     -38.198       0.45137     -51.621      
              0.41032     -44.766       0.35857     -38.198       0.75778     -164.18       0.35823     -38.112      
              0.41339     -42.456       0.45137     -51.621       0.35823     -38.112       0.7046      -169.72      

 5.35         0.70167     -164.75       0.41219     -42.777       0.40907     -45.118       0.41219     -42.782      
              0.41219     -42.777       0.70628     -169.91       0.35647     -38.475       0.45122     -52.091      
              0.40907     -45.118       0.35647     -38.475       0.76043     -164.26       0.35612     -38.388      
              0.41219     -42.782       0.45122     -52.091       0.35612     -38.388       0.70646     -169.87      

 5.4          0.70378     -164.79       0.411       -43.102       0.40782     -45.468       0.411       -43.107      
              0.411       -43.102       0.70811     -170.06       0.35437     -38.751       0.45109     -52.562      
              0.40782     -45.468       0.35437     -38.751       0.76306     -164.34       0.35402     -38.662      
              0.411       -43.107       0.45109     -52.562       0.35402     -38.662       0.70828     -170.02      

 5.45         0.70589     -164.83       0.40981     -43.425       0.40658     -45.817       0.40981     -43.431      
              0.40981     -43.425       0.70991     -170.22       0.35226     -39.024       0.451       -53.035      
              0.40658     -45.817       0.35226     -39.024       0.76567     -164.42       0.3519      -38.934      
              0.40981     -43.431       0.451       -53.035       0.3519      -38.934       0.71008     -170.17      

 5.5          0.70798     -164.87       0.40862     -43.747       0.40533     -46.165       0.40862     -43.752      
              0.40862     -43.747       0.71167     -170.38       0.35015     -39.296       0.45093     -53.509      
              0.40533     -46.165       0.35015     -39.296       0.76826     -164.5        0.34979     -39.204      
              0.40862     -43.752       0.45093     -53.509       0.34979     -39.204       0.71185     -170.33      

 5.6          0.71212     -164.95       0.40625     -44.386       0.40285     -46.857       0.40625     -44.392      
              0.40625     -44.386       0.7151      -170.71       0.34592     -39.835       0.4509      -54.461      
              0.40285     -46.857       0.34592     -39.835       0.77339     -164.68       0.34554     -39.74       
              0.40625     -44.392       0.4509      -54.461       0.34554     -39.74        0.71528     -170.66      

 5.7          0.7162      -165.04       0.40388     -45.02        0.40036     -47.543       0.40388     -45.026      
              0.40388     -45.02        0.7184      -171.05       0.34167     -40.366       0.45101     -55.42       
              0.40036     -47.543       0.34167     -40.366       0.77844     -164.86       0.34128     -40.268      
              0.40388     -45.026       0.45101     -55.42        0.34128     -40.268       0.71859     -171.01      

 5.8          0.72022     -165.14       0.40152     -45.648       0.39789     -48.225       0.40152     -45.654      
              0.40152     -45.648       0.72156     -171.42       0.33741     -40.89        0.45127     -56.387      