! AWR Design Environment (6954) Tue Jul 07 12:52:29 2015
! Simulator: Linear circuit simulator
! Ports: 2, Freqs: 203
# GHz S MA R 50
!-----------------------------------------------------------------------------
!Freq             MagS11           AngS11           MagS21           AngS21           MagS12           AngS12           MagS22           AngS22
 0                0.000860494973   -0               0.999139483      -0               0.999139483      -0               0.000860494953   -0              
 0.0001           0.00126856974   -47.4471229       0.999139074     -0.0554241348     0.999139074     -0.0554241348     0.00127083599   -47.5378038      
 0.001            0.00937461672   -85.3476213       0.999084803     -0.552668331      0.999084803     -0.552668331      0.00940556369   -85.3129511      
 0.1              0.686349285     -136.567461       0.723526824     -45.0756987       0.723526824     -45.0756987       0.688881003     -133.565309      
 0.2              0.881117605     -158.255418       0.465036854     -65.2626267       0.465036854     -65.2626267       0.884571479     -152.302897      
 0.3              0.939193029     -169.641514       0.331248998     -75.1660273       0.331248998     -75.1660273       0.943062129     -160.738735      
 0.4              0.96231751      -177.198436       0.255425231     -81.2440288       0.255425231     -81.2440288       0.966461862     -165.3434        
 0.5              0.97353555       176.975629       0.207644244     -85.5911472       0.207644244     -85.5911472       0.977903017     -168.213241      
 0.6              0.979726767      172.059924       0.175095213     -89.0263227       0.175095213     -89.0263227       0.984292162     -170.16723       
 0.7              0.983457185      167.675368       0.151639522     -91.9273475       0.151639522     -91.9273475       0.9882056       -171.582661      
 0.8              0.985848578      163.623961       0.134018405     -94.4911296       0.134018405     -94.4911296       0.990769795     -172.655735      
 0.9              0.987451647      159.792254       0.12035523      -96.8301054       0.12035523      -96.8301054       0.992537947     -173.498081      
 1                0.988561533      156.110359       0.109497668     -99.0131755       0.109497668     -99.0131755       0.993806714     -174.177729      
 1.1              0.989347606      152.532603       0.100700932     -101.085022       0.100700932     -101.085022       0.994746505     -174.738441      
 1.2              0.989912513      149.027604       0.0934631939    -103.076016       0.0934631939    -103.076016       0.995460752     -175.20962       
 1.3              0.990321279      145.572822       0.0874345185    -105.007651       0.0874345185    -105.007651       0.996015132     -175.611741      
 1.4              0.990616619      142.151403       0.0823638171    -106.895692       0.0823638171    -106.895692       0.996452944     -175.959495      
 1.5              0.990827443      138.750255       0.078066558     -108.752088       0.078066558     -108.752088       0.996803647     -176.263697      
 1.6              0.990973799      135.358829       0.0744043071    -110.586176       0.0744043071    -110.586176       0.997087833     -176.532478      
 1.7              0.991069861      131.968321       0.071271446     -112.405478       0.071271446     -112.405478       0.997320229     -176.772074      
 1.8              0.9911258        128.571122       0.0685861894    -114.216231       0.0685861894    -114.216231       0.99751158      -176.987344      
 1.9              0.991148979      125.160436       0.0662844782    -116.023759       0.0662844782    -116.023759       0.997669853     -177.182134      
 2                0.991144751      121.729995       0.0643156285    -117.832745       0.0643156285    -117.832745       0.997801042     -177.359524      
 2.1              0.991116983      118.273854       0.0626392643    -119.647418       0.0626392643    -119.647418       0.99790971      -177.522012      
 2.2              0.991068421      114.786208       0.0612230699    -121.471715       0.0612230699    -121.471715       0.997999354     -177.671645      
 2.3              0.991000939      111.261257       0.0600411495    -123.309397       0.0600411495    -123.309397       0.998072673     -177.81012       
 2.4              0.990915708      107.693085       0.0590727772    -125.164144       0.0590727772    -125.164144       0.998131753     -177.93885       
 2.5              0.990813311      104.075532       0.0583015114    -127.039648       0.0583015114    -127.039648       0.998178194     -178.059025      
 2.6              0.990693819      100.402098       0.0577144595    -128.939682       0.0577144595    -128.939682       0.998213212     -178.171657      
 2.7              0.990556834      96.6658108       0.0573017995    -130.868186       0.0573017995    -130.868186       0.998237707     -178.277606      
 2.8              0.990401514      92.8591159       0.0570563473    -132.829328       0.0570563473    -132.829328       0.998252313     -178.377615      
 2.9              0.990226562      88.9737367       0.0569733017    -134.827594       0.0569733017    -134.827594       0.998257428     -178.472323      
 3                0.990030212      85.0005174       0.0570500234    -136.867865       0.0570500234    -136.867865       0.998253245     -178.562288      
 3.1              0.989810188      80.9292666       0.0572858867    -138.955509       0.0572858867    -138.955509       0.998239757     -178.647993      
 3.2              0.989563642      76.7485352       0.0576822128    -141.096491       0.0576822128    -141.096491       0.99821677      -178.729867      
 3.3              0.989287077      72.4453904       0.0582422181    -143.297496       0.0582422181    -143.297496       0.998183894     -178.808281      
 3.4              0.988976244      68.0051389       0.058971011     -145.566061       0.058971011     -145.566061       0.998140535     -178.883566      
 3.5              0.988626012      63.4109934       0.0598756105    -147.910753       0.0598756105    -147.910753       0.998085884     -178.956009      
 3.6              0.988230207      58.6436753       0.0609650094    -150.341356       0.0609650094    -150.341356       0.99801889      -179.025864      
 3.7              0.987781425      53.6809464       0.0622501907    -152.869112       0.0622501907    -152.869112       0.99793823      -179.093348      
 3.8              0.987270806      48.4970538       0.0637441818    -155.506986       0.0637441818    -155.506986       0.99784228      -179.158645      
 3.9              0.986687778      43.0620797       0.0654619903    -158.26999        0.0654619903    -158.26999        0.997729068     -179.221902      
 4                0.986019777      37.3411502       0.0674205129    -161.175556       0.0674205129    -161.175556       0.997596243     -179.283229      
 4.1              0.985251979      31.2935877       0.0696381531    -164.243951       0.0696381531    -164.243951       0.997441035     -179.342689      
 4.2              0.984367014      24.8719067       0.0721347515    -167.498762       0.0721347515    -167.498762       0.997260198     -179.400315      
 4.3              0.983344969      18.0207621       0.0749295919    -170.967349       0.0749295919    -170.967349       0.997050095     -179.456044      
 4.4              0.982163694      10.676013        0.0780390425    -174.681264       0.0780390425    -174.681264       0.996806831     -179.509703      
 4.5              0.980799547      2.76398851       0.0814744626    -178.67657        0.0814744626    -178.67657        0.996526418     -179.561018      
 4.6              0.979229393     -5.79862879       0.0852367436     177.006204       0.0852367436     177.006204       0.996205289     -179.609563      
 4.7              0.977434349     -15.1036253       0.0893089515     172.322725       0.0893089515     172.322725       0.995841155     -179.654766      
 4.8              0.975406174     -25.2479295       0.093646183      167.226648       0.093646183      167.226648       0.995434373     -179.695831      
 4.9              0.973157261     -36.3266195       0.0981623043     161.673138       0.0981623043     161.673138       0.994990003     -179.731766      
 5                0.970734343     -48.4208385       0.102715273      155.624815       0.102715273      155.624815       0.994520458     -179.761444      
 5.1              0.96823402      -61.5791707       0.107095039      149.060693       0.107095039      149.060693       0.99404828      -179.783775      
 5.2              0.96581419      -75.7930009       0.1110219        141.98776        0.1110219        141.98776        0.993607725     -179.798018      
 5.3              0.963690781     -90.9700973       0.114165877      134.453055       0.114165877      134.453055       0.993243094     -179.804205      
 5.4              0.962108143     -106.915633       0.116195115      126.551968       0.116195115      126.551968       0.993001792     -179.803546      
 5.5              0.96128124      -123.333536       0.116848551      118.426978       0.116848551      118.426978       0.992922354     -179.798554      
 5.6              0.961328365     -139.856893       0.1160088        110.25314        0.1160088        110.25314        0.993021692     -179.792681      
 5.7              0.962229476     -156.103247       0.113740183      102.212445       0.113740183      102.212445       0.993288467     -179.789495      
 5.8              0.963835785     -171.735834       0.110270314      94.4656046       0.110270314      94.4656046       0.993686874     -179.79179       
 5.9              0.965923712      173.492198       0.105925275      87.1315321       0.105925275      87.1315321       0.994168544     -179.801059      
 6                0.968258054      159.671603       0.101042267      80.2548039       0.101042267      80.2548039       0.994686704     -179.817445      
 6.1              0.970653268      146.896632       0.0959290977     73.8834901       0.0959290977     73.8834901       0.995203003     -179.840292      
 6.2              0.972970722      135.147896       0.0908261343     68.0105595       0.0908261343     68.0105595       0.995691437     -179.868414      
 6.3              0.975127287      124.359857       0.085899873      62.6063314       0.085899873      62.6063314       0.996137526     -179.900521      
 6.4              0.97708323       114.443591       0.0812529087     57.6292441       0.0812529087     57.6292441       0.996535432     -179.935445      
 6.5              0.9788281        105.302331       0.0769392532     53.0333537       0.0769392532     53.0333537       0.996884918     -179.972225      
 6.6              0.980368873      96.8410897       0.0729792711     48.7730825       0.0729792711     48.7730825       0.997188906      179.989875      
 6.7              0.981721557      88.971792        0.0693717553     44.8058307       0.0693717553     44.8058307       0.997451805      179.951394      
 6.8              0.98290582       81.6154882       0.0661027342     41.0931672       0.0661027342     41.0931672       0.997678485      179.912711      
 6.9              0.983941864      74.7028414       0.0631514778     37.601162        0.0631514778     37.601162        0.997873697      179.874086      
 7                0.984848752      68.1737436       0.0604943866     34.30027         0.0604943866     34.30027         0.99804179       179.835688      
 7.1              0.985643661      61.9763989       0.0581073615     31.1649349       0.0581073615     31.1649349       0.998186604      179.797623      
 7.2              0.986341629      56.066332        0.0559671958     28.1731397       0.0559671958     28.1731397       0.998311452      179.759951      
 7.3              0.986955594      50.4053392       0.0540523132     25.3059168       0.0540523132     25.3059168       0.998419152      179.722702      
 7.4              0.987496547      44.9605819       0.0523431297     22.5469197       0.0523431297     22.5469197       0.998512079      179.685883      
 7.5              0.98797375       39.7037311       0.0508221582     19.8820134       0.0508221582     19.8820134       0.998592221      179.649486      
 7.6              0.98839496       34.6102415       0.0494739786     17.298924        0.0494739786     17.298924        0.998661239      179.613494      
 7.7              0.988766631      29.6587394       0.04828515       14.7869413       0.04828515       14.7869413       0.99872051       179.577883      
 7.8              0.989094108      24.8304759       0.0472440667     12.3366518       0.0472440667     12.3366518       0.998771176      179.542625      
 7.9              0.989381298      20.1075434       0.0463464791     9.93900392       0.0463464791     9.93900392       0.998813908      179.507654      
 8                0.989631734      15.4758325       0.0455829129     7.58690586       0.0455829129     7.58690586       0.998849542      179.472952      
 8.1              0.989848687      10.9224468       0.0449425765     5.27386058       0.0449425765     5.27386058       0.998878884      179.438499      
 8.2              0.990034368      6.43522903       0.0444199207     2.99371328       0.0444199207     2.99371328       0.998902427      179.404259      
 8.3              0.990190369      2.00306428       0.0440108644     0.740827003      0.0440108644     0.740827003      0.99892054       179.370196      
 8.4              0.990317751     -2.38443436       0.0437125686    -1.4900773        0.0437125686    -1.4900773        0.998933486      179.33627       
 8.5              0.990416868     -6.73767389       0.0435256687    -3.70433367       0.0435256687    -3.70433367       0.998941334      179.302413      
 8.6              0.990487693     -11.0663865       0.04345048      -5.90691944       0.04345048      -5.90691944       0.998944126      179.268577      
 8.7              0.990529974     -15.3793415       0.0434853692    -8.10228486       0.0434853692    -8.10228486       0.998941955      179.234753      
 8.8              0.990542702     -19.6859445       0.0436325379    -10.2952519       0.0436325379    -10.2952519       0.998934702      179.200898      
 8.9              0.990524274     -23.9958164       0.0438955995    -12.490762        0.0438955995    -12.490762        0.998922143      179.166964      
 9                0.990472416     -28.3190109       0.044279691     -14.693988        0.044279691     -14.693988        0.998903939      179.1329        
 9.1              0.990384063     -32.6662239       0.0447916899    -16.9104405       0.0447916899    -16.9104405       0.998879619      179.098651      
 9.2              0.990255212     -37.0490816       0.0454404324    -19.146116        0.0454404324    -19.146116        0.99884855       179.064156      
 9.3              0.9900807       -41.4804564       0.0462370504    -21.4076589       0.0462370504    -21.4076589       0.998809912      179.029351      
 9.4              0.989853923     -45.9748597       0.0471953806    -23.702562        0.0471953806    -23.702562        0.998762647      178.99416       
 9.5              0.989566441     -50.5489363       0.0483325084    -26.0394201       0.0483325084    -26.0394201       0.998705398      178.958503      
 9.6              0.989207444     -55.2220876       0.0496694613    -28.4282476       0.0496694613    -28.4282476       0.998636428      178.922287      
 9.7              0.988763015     -60.0172941       0.0512321161    -30.8808976       0.0512321161    -30.8808976       0.998553504      178.885409      
 9.8              0.988215125     -64.9621853       0.0530523559    -33.4116034       0.0530523559    -33.4116034       0.998453737      178.847752      
 9.9              0.987540176     -70.0904875       0.0551696436    -36.037714        0.0551696436    -36.037714        0.998333365      178.809185      
 10               0.986707006     -75.4439507       0.0576329329    -38.7806597       0.0576329329    -38.7806597       0.998187442      178.769564      
 10.1             0.985673966     -81.0750548       0.0605033147    -41.667308        0.0605033147    -41.667308        0.998009394      178.728733      
 10.2             0.984384727     -87.0507645       0.0638573543    -44.7318283       0.0638573543    -44.7318283       0.997790397      178.686535      
 10.3             0.982762133     -93.4578565       0.0677913717    -48.0183153       0.0677913717    -48.0183153       0.99751846       178.642827      
 10.4             0.980699262     -100.410534       0.0724266006    -51.584494        0.0724266006    -51.584494        0.99717713       178.597522      
 10.5             0.978046456     -108.061465       0.0779149343    -55.5070105       0.0779149343    -55.5070105       0.996743652      178.550672      
 10.6             0.974593218     -116.61771        0.0844436196    -59.8889053       0.0844436196    -59.8889053       0.996186509      178.502631      
 10.7             0.970054415     -126.356223       0.0922082779    -64.8660609       0.0922082779    -64.8660609       0.995465057      178.454542      
 10.8             0.964027605     -137.670757       0.101463471     -70.6293439       0.101463471     -70.6293439       0.994521357      178.408497      
 10.9             0.956015496     -151.095679       0.112400942     -77.431745        0.112400942     -77.431745        0.993288264      178.3691        
 11               0.94553396      -167.334587       0.125002916     -85.5957113       0.125002916     -85.5957113       0.991708457      178.345156      
 11.1             0.932520511      172.782468       0.138690482     -95.4825273       0.138690482     -95.4825273       0.989798373      178.351559      
 11.2             0.918289817      148.5518         0.151761249     -107.366285       0.151761249     -107.366285       0.987783821      178.407769      
 11.3             0.90666398       120.038967       0.161051676     -121.156172       0.161051676     -121.156172       0.986236267      178.525065      
 11.4             0.902981683      88.8926243       0.163019127     -136.089692       0.163019127     -136.089692       0.985891203      178.682901      
 11.5             0.909417563      58.1602929       0.156469415     -150.847461       0.156469415     -150.847461       0.986996527      178.827814      
 11.6             0.922426939      30.6786298       0.143774405     -164.188187       0.143774405     -164.188187       0.989013303      178.915568      
 11.7             0.936706392      7.64813021       0.128725266     -175.531154       0.128725266     -175.531154       0.991180755      178.941368      
 11.8             0.949158346     -11.1577338       0.114076245      175.083078       0.114076245      175.083078       0.993057794      178.924217      
 11.9             0.959079311     -26.6860595       0.100930412      167.254522       0.100930412      167.254522       0.994547173      178.884052      
 12               0.966588368     -39.5375282       0.0897348471     160.728456       0.0897348471     160.728456       0.995670734      178.83354       
 12.1             0.972214802     -50.3844171       0.080357521      155.193734       0.080357521      155.193734       0.996509512      178.779833      
 12.2             0.9764507       -59.7325964       0.0725286786     150.409056       0.0725286786     150.409056       0.997138446      178.726324      
 12.3             0.979675204     -67.9488398       0.0659728632     146.195868       0.0659728632     146.195868       0.997615199      178.674442      
 12.4             0.982162753     -75.2981026       0.0604509705     142.423279       0.0604509705     142.423279       0.997981456      178.624658      
 12.5             0.984108136     -81.9732687       0.0557678282     138.994968       0.0557678282     138.994968       0.99826675       178.577007      
 12.6             0.985649449     -88.1165372       0.0517680069     135.839334       0.0517680069     135.839334       0.998491971      178.531332      
 12.7             0.986885302     -93.834198        0.0483287902     132.902518       0.0483287902     132.902518       0.998671993      178.487413      
 12.8             0.987886937     -99.2069128       0.0453532432     130.143439       0.0453532432     130.143439       0.998817529      178.445017      
 12.9             0.98870648      -104.296734       0.0427645265     127.530363       0.0427645265     127.530363       0.998936385      178.403921      
 13               0.989384053     -109.153804       0.0404923266     125.037404       0.0404923266     125.037404       0.999034716      178.363828      
 13.1             0.989946892     -113.814063       0.0384972324     122.646221       0.0384972324     122.646221       0.999116379      178.324658      
 13.2             0.990417097     -118.307999       0.0367400475     120.341099       0.0367400475     120.341099       0.999184626      178.286265      
 13.3             0.990811815     -122.660376       0.0351880332     118.10923        0.0351880332     118.10923        0.999241983      178.248511      
 13.4             0.991144397     -126.891382       0.0338143559     115.94015        0.0338143559     115.94015        0.999290403      178.211274      
 13.5             0.991425345     -131.017604       0.0325968974     113.825248       0.0325968974     113.825248       0.999331412      178.174448      
 13.6             0.991663001     -135.052799       0.0315173212     111.757362       0.0315173212     111.757362       0.99936621       178.137937      
 13.7             0.991864051     -139.00846        0.030560368      109.7305         0.030560368      109.7305         0.999395751      178.101656      
 13.8             0.992033898     -142.89426        0.0297132848     107.739607       0.0297132848     107.739607       0.999420797      178.065527      
 13.9             0.992176936     -146.718394       0.0289653972     105.780389       0.0289653972     105.780389       0.999441957      178.02948       
 14               0.992296792     -150.489014       0.0283089414     103.848557       0.0283089414     103.848557       0.999459687      177.993443      
 14.1             0.992396368     -154.211268       0.0277357708     101.941398       0.0277357708     101.941398       0.999474405      177.957357      
 14.2             0.992478095     -157.88998        0.0272392723     100.056359       0.0272392723     100.056359       0.99948644       177.921162      
 14.3             0.992543999     -161.529682       0.0268142549     98.1910338       0.0268142549     98.1910338       0.999496047      177.8848        
 14.4             0.992595756     -165.134338       0.0264564643     96.3433052       0.0264564643     96.3433052       0.999503426      177.848214      
 14.5             0.992634744     -168.70745        0.0261624648     94.5112939       0.0261624648     94.5112939       0.999508733      177.811348      
 14.6             0.992662095     -172.252133       0.0259295588     92.6933157       0.0259295588     92.6933157       0.999512083      177.774143      
 14.7             0.992678721     -175.771186       0.025755725      90.8878473       0.025755725      90.8878473       0.999513559      177.736543      
 14.8             0.992685672     -179.267567       0.0256377801     89.0934439       0.0256377801     89.0934439       0.999513259      177.698542      
 14.9             0.992683655      177.256626       0.0255738242     87.3089575       0.0255738242     87.3089575       0.999511233      177.660089      
 15               0.992672717      173.799848       0.0255654206     85.5332965       0.0255654206     85.5332965       0.999507423      177.621051      
 15.1             0.992653086      170.360076       0.0256129618     83.7653152       0.0256129618     83.7653152       0.99950179       177.581358      
 15.2             0.992624872      166.93537        0.025717301      82.0039174       0.025717301      82.0039174       0.999494269      177.540938      
 15.3             0.992588034      163.523835       0.025879905      80.2480087       0.025879905      80.2480087       0.999484762      177.49971       
 15.4             0.992542376      160.123585       0.0261028698     78.4964884       0.0261028698     78.4964884       0.999473137      177.457585      
 15.5             0.992487543      156.732703       0.0263889531     76.7482276       0.0263889531     76.7482276       0.999459224      177.414466      
 15.6             0.992423048      153.349205       0.0267416901     75.0020616       0.0267416901     75.0020616       0.999442809      177.370244      
 15.7             0.992348123      149.971004       0.0271654271     73.2567288       0.0271654271     73.2567288       0.999423625      177.324802      
 15.8             0.992261835      146.59586        0.0276654781     71.5108879       0.0276654781     71.5108879       0.999401341      177.278002      
 15.9             0.992162973      143.221331       0.0282482535     69.7630678       0.0282482535     69.7630678       0.999375555      177.229696      
 16               0.992050603      139.846887       0.0289157994     68.0128521       0.0289157994     68.0128521       0.999345956      177.179757      
 16.1             0.991922473      136.467889       0.0296811798     66.2575102       0.0296811798     66.2575102       0.999311818      177.127961      
 16.2             0.991776163      133.080639       0.030556065      64.494811        0.030556065      64.494811        0.999272375      177.074077      
 16.3             0.991608757      129.681254       0.031553462      62.722397        0.031553462      62.722397        0.999226705      177.017847      
 16.4             0.991416615      126.26524        0.0326889981     60.9375384       0.0326889981     60.9375384       0.99917366       176.95897       
 16.5             0.991195165      122.827333       0.0339815316     59.1370397       0.0339815316     59.1370397       0.999111795      176.897093      
 16.6             0.990938627      119.361313       0.0354539267     57.3171272       0.0354539267     57.3171272       0.999039277      176.8318        
 16.7             0.990639632      115.859749       0.0371340938     55.473297        0.0371340938     55.473297        0.998953754      176.762595      
 16.8             0.990288692      112.313681       0.039056348      53.6001223       0.039056348      53.6001223       0.998852181      176.68888       
 16.9             0.989873443      108.712181       0.0412632241     51.6909942       0.0412632241     51.6909942       0.998730562      176.609931      
 17               0.989377555      105.041763       0.0438079837     49.7377662       0.0438079837     49.7377662       0.998583577      176.524862      
 17.1             0.988779141      101.285575       0.0467580324     47.7302731       0.0467580324     47.7302731       0.998404043      176.432571      
 17.2             0.988048348      97.422252        0.0501997353     45.6556511       0.0501997353     45.6556511       0.998182079      176.331678      
 17.3             0.987143673      93.4242819       0.0542452973     43.4973658       0.0542452973     43.4973658       0.997903845      176.220429      
 17.4             0.986006144      89.2555936       0.0590427936     41.2337918       0.0590427936     41.2337918       0.997549513      176.09656       
 17.5             0.984549868      84.8679233       0.0647910915     38.8360789       0.0647910915     38.8360789       0.997089989      175.957111      
 17.6             0.982646147      80.1951511       0.0717626939     36.2648531       0.0717626939     36.2648531       0.996481364      175.798142      
 17.7             0.98009583       75.1442322       0.0803394159     33.4649796       0.0803394159     33.4649796       0.995655242      175.614333      
 17.8             0.976600847      69.5894535       0.0910047505     30.3629625       0.0910047505     30.3629625       0.994508146      175.399171      
 17.9             0.971623314      63.3272718       0.104596807      26.8394979       0.104596807      26.8394979       0.992853757      175.142232      
 18               0.964236928      56.0426744       0.122328702      22.713253        0.122328702      22.713253        0.990369855      174.829898      
 18.1             0.952725375      47.2147225       0.146088272      17.690548        0.146088272      17.690548        0.986460152      174.444648      
 18.2             0.933722287      35.9267752       0.178859066      11.2718921       0.178859066      11.2718921       0.979964447      173.969175      
 18.3             0.900355553      20.451923        0.225176698      2.57202445       0.225176698      2.57202445       0.968566348      173.411645      
 18.4             0.839268122     -2.67124559       0.290305515     -9.97620459       0.290305515     -9.97620459       0.948020123      172.920237      
 18.5             0.736094408     -40.2862082       0.371330601     -28.6754366       0.371330601     -28.6754366       0.914772915      173.159849      
 18.6             0.641659523     -100.090642       0.430392854     -54.2359435       0.430392854     -54.2359435       0.885376861      175.367262      
 18.7             0.686409068     -164.854274       0.415528553     -80.6879047       0.415528553     -80.6879047       0.895126907      178.296949      
 18.8             0.789126351      151.865216       0.355828841     -100.87843        0.355828841     -100.87843        0.925226725      179.441978      
 18.9             0.85941561       125.629562       0.299091482     -114.566371       0.299091482     -114.566371       0.948370544      179.398624      