! AWR Design Environment (7688) Fri Jul 15 12:03:54 2016
! Document = 'Bond wire array'
! nPorts: 6, nXvals: 59

# HZ S DB R 50
!Freq DBS11 AngS11 DBS12 AngS12 DBS13 AngS13 DBS14 AngS14 
!	DBS15 AngS15 DBS16 AngS16 
!	DBS21 AngS21 DBS22 AngS22 DBS23 AngS23 DBS24 AngS24 
!	DBS25 AngS25 DBS26 AngS26 
!	DBS31 AngS31 DBS32 AngS32 DBS33 AngS33 DBS34 AngS34 
!	DBS35 AngS35 DBS36 AngS36 
!	DBS41 AngS41 DBS42 AngS42 DBS43 AngS43 DBS44 AngS44 
!	DBS45 AngS45 DBS46 AngS46 
!	DBS51 AngS51 DBS52 AngS52 DBS53 AngS53 DBS54 AngS54 
!	DBS55 AngS55 DBS56 AngS56 
!	DBS61 AngS61 DBS62 AngS62 DBS63 AngS63 DBS64 AngS64 
!	DBS65 AngS65 DBS66 AngS66 
0 -79.085203 -0 -800 0 -800 0 -0.00096511331 -0 
	-800 0 -800 0 
	-800 0 -83.468588 -0 -800 0 -800 0 
	-0.00058263892 -0 -800 0 
	-800 0 -800 0 -79.327545 -0 -800 0 
	-800 0 -0.00093855668 -0 
	-0.0009651133 -0 -800 0 -800 0 -79.085203 0 
	-800 0 -800 0 
	-800 0 -0.00058263892 -0 -800 0 -800 0 
	-83.468588 0 -800 0 
	-800 0 -800 0 -0.00093855668 -0 -800 0 
	-800 0 -79.327545 0 
100000 -79.10652 1.2729126 -128.11177 62.742537 -139.45677 32.317502 -0.00096772186 -0.00025103633 
	-133.51306 -31.46608 -140.26852 -21.780918 
	-128.11177 62.742537 -83.521558 1.0905009 -127.70649 64.080295 -133.5131 -31.465935 
	-0.00058628908 -0.00026285472 -133.41367 -32.515947 
	-139.45677 32.317503 -127.70649 64.080296 -79.34959 1.2538467 -140.26852 -21.780916 
	-133.41363 -32.516075 -0.00094116509 -0.00024252256 
	-0.00096772186 -0.00025103633 -133.5131 -31.465935 -140.26852 -21.780916 -79.106521 1.2729174 
	-128.11169 62.741535 -139.45651 32.316472 
	-133.51306 -31.46608 -0.00058628908 -0.00026285472 -133.41363 -32.516077 -128.11169 62.741535 
	-83.52156 1.0905088 -127.70642 64.079321 
	-140.26852 -21.780918 -133.41367 -32.515945 -0.00094116509 -0.00024252256 -139.45651 32.316472 
	-127.70642 64.079321 -79.349591 1.2538514 
1000000 -78.897342 12.524193 -109.12239 87.019558 -124.78481 81.342905 -0.00096798236 -0.0025103041 
	-119.04328 -80.637607 -128.58007 -75.501177 
	-109.12239 87.019558 -83.36712 10.775422 -108.61681 87.176445 -119.04336 -80.638075 
	-0.00058645733 -0.002628536 -118.69721 -80.969394 
	-124.78481 81.342905 -108.61681 87.176445 -79.146449 12.342284 -128.58007 -75.501176 
	-118.69713 -80.968929 -0.00094143048 -0.0024251598 
	-0.00096798236 -0.0025103041 -119.04336 -80.638074 -128.58007 -75.501177 -78.89734 12.524235 
	-109.12239 87.019378 -124.78479 81.342445 
	-119.04328 -80.637607 -0.00058645732 -0.002628536 -118.69713 -80.968929 -109.12239 87.019378 
	-83.367118 10.775496 -108.61681 87.176269 
	-128.58007 -75.501176 -118.69721 -80.969394 -0.00094143048 -0.0024251598 -124.78479 81.342445 
	-108.61681 87.176269 -79.146446 12.342326 
5e+008 -38.970622 86.756688 -55.157011 87.830522 -70.683206 87.895548 -0.0045387226 -1.1943716 
	-65.1928 -90.187791 -74.53921 -91.97245 
	-55.157011 87.830522 -44.860798 86.614496 -54.650118 87.852863 -65.194735 -90.452665 
	-0.0028616154 -1.2779046 -64.840027 -90.343655 
	-70.683206 87.895548 -54.650118 87.852863 -39.35822 86.774832 -74.539216 -91.973193 
	-64.83809 -90.084538 -0.0044052934 -1.1534037 
	-0.0045387226 -1.1943716 -65.194735 -90.452665 -74.539216 -91.973193 -38.970339 86.718307 
	-55.156792 87.804977 -70.683348 87.841131 
	-65.1928 -90.187791 -0.0028616154 -1.2779046 -64.83809 -90.084538 -55.156792 87.804977 
	-44.860142 86.567956 -54.649922 87.826845 
	-74.53921 -91.97245 -64.840027 -90.343655 -0.0044052934 -1.1534037 -70.683348 87.841131 
	-54.649922 87.826845 -39.357931 86.735216 
6e+008 -37.41544 86.719845 -53.574054 87.556128 -69.099964 87.54492 -0.0051619762 -1.4308239 
	-63.612485 -90.715348 -72.956643 -92.513337 
	-53.574054 87.556128 -43.310395 86.595427 -53.067134 87.584134 -63.614514 -91.033198 
	-0.003222744 -1.5320469 -63.259809 -90.915283 
	-69.099964 87.54492 -53.067134 87.584134 -37.803495 86.749343 -72.956648 -92.514227 
	-63.257766 -90.60433 -0.0050027786 -1.3817316 
	-0.0051619762 -1.4308239 -63.614514 -91.033198 -72.956648 -92.514227 -37.415138 86.673541 
	-53.573781 87.525488 -69.100152 87.479666 
	-63.612485 -90.715348 -0.003222744 -1.5320469 -63.257766 -90.60433 -53.573781 87.525488 
	-43.309665 86.539171 -53.066889 87.552931 
	-72.956643 -92.513337 -63.259809 -90.915283 -0.0050027786 -1.3817316 -69.100152 87.479666 
	-53.066889 87.552931 -37.803186 86.701547 
7e+008 -36.098817 86.638395 -52.235851 87.281947 -67.761708 87.195708 -0.0058022581 -1.6670813 
	-62.276761 -91.242405 -71.619003 -93.052069 
	-52.235851 87.281947 -41.997314 86.523412 -51.728899 87.315613 -62.278797 -91.613259 
	-0.0035811425 -1.7860812 -61.924094 -91.486446 
	-67.761708 87.195708 -51.728899 87.315613 -36.487217 86.678507 -71.619006 -93.053105 
	-61.922028 -91.123627 -0.0056145543 -1.6098709 
	-0.0058022581 -1.6670813 -62.278797 -91.613259 -71.619006 -93.053105 -36.098498 86.584149 
	-52.235523 87.246213 -67.761951 87.119621 
	-62.276761 -91.242405 -0.0035811425 -1.7860812 -61.922028 -91.123627 -52.235523 87.246213 
	-41.996514 86.457416 -51.728603 87.279226 
	-71.619003 -93.052069 -61.924094 -91.486446 -0.0056145543 -1.6098709 -67.761951 87.119621 
	-51.728603 87.279226 -36.486891 86.622512 
8e+008 -34.957152 86.526994 -51.076815 87.007941 -66.602802 86.847509 -0.0064649759 -1.9031801 
	-61.120055 -91.769076 -70.460631 -93.589283 
	-51.076815 87.007941 -40.858333 86.415781 -50.569827 87.047261 -61.12201 -92.192958 
	-0.0039401113 -2.0400303 -60.767308 -92.057252 
	-66.602802 86.847509 -50.569827 87.047261 -35.345822 86.577219 -70.460633 -93.590466 
	-60.765305 -91.642542 -0.0062458848 -1.8378573 
	-0.0064649759 -1.9031801 -61.12201 -92.192958 -70.460633 -93.590466 -34.956817 86.464793 
	-51.07643 86.967112 -66.603109 86.760591 
	-61.120055 -91.769076 -0.0039401113 -2.0400303 -60.765305 -91.642542 -51.07643 86.967112 
	-40.857465 86.340028 -50.569479 87.005689 
	-70.460631 -93.589283 -60.767308 -92.057252 -0.0062458848 -1.8378573 -66.603109 86.760591 
	-50.569479 87.005689 -35.34548 86.513012 
9e+008 -33.949332 86.394353 -50.054642 86.734084 -65.580913 86.500078 -0.0071538761 -2.1391451 
	-60.100071 -92.295438 -69.439182 -94.125368 
	-50.054642 86.734084 -39.852563 86.282845 -49.547613 86.779053 -60.101858 -92.772366 
	-0.004301945 -2.2939102 -59.747157 -92.627773 
	-65.580913 86.500078 -49.547613 86.779053 -34.338216 86.454333 -69.439181 -94.126698 
	-59.7453 -92.161152 -0.0069004188 -2.0657148 
	-0.0071538761 -2.1391451 -60.101858 -92.772366 -69.439181 -94.126698 -33.948983 86.324186 
	-50.054197 86.688159 -65.581292 86.402329 
	-60.100071 -92.295438 -0.004301945 -2.2939102 -59.7453 -92.161152 -50.054197 86.688159 
	-39.851627 86.197324 -49.547211 86.732297 
	-69.439182 -94.125368 -59.747157 -92.627773 -0.0069004188 -2.0657148 -65.581292 86.402329 
	-49.547211 86.732297 -34.33786 86.381901 
1e+009 -33.047235 86.246012 -49.140446 86.460357 -64.667137 86.153254 -0.0078716774 -2.3749938 
	-59.187931 -92.821545 -68.525743 -94.660576 
	-49.140446 86.460357 -38.952027 86.131174 -48.633372 86.51097 -59.189463 -93.351533 
	-0.0046683165 -2.5477326 -58.834762 -93.19806 
	-64.667137 86.153254 -48.633372 86.51097 -33.436292 86.31548 -68.52574 -94.662052 
	-58.833135 -92.679512 -0.007580805 -2.2934606 
	-0.0078716774 -2.3749938 -59.189463 -93.351533 -68.52574 -94.662052 -33.046873 86.16787 
	-49.13994 86.409334 -64.667597 86.044676 
	-59.187931 -92.821545 -0.0046683165 -2.5477326 -58.833135 -92.679512 -49.13994 86.409334 
	-38.951025 86.035878 -48.632914 86.459028 
	-68.525743 -94.660576 -58.834762 -93.19806 -0.007580805 -2.2934606 -64.667597 86.044676 
	-48.632914 86.459028 -33.435923 86.234813 
1.1e+009 -32.230775 86.085687 -48.313626 86.186746 -63.840858 85.806931 -0.0086204232 -2.6107391 
	-58.363038 -93.347437 -67.699696 -95.195078 
	-48.313626 86.186746 -38.136735 85.965174 -47.806501 86.242999 -58.364227 -93.930494 
	-0.00504049 -2.8015063 -58.009526 -93.768147 
	-63.840858 85.806931 -47.806501 86.242999 -32.619971 86.164435 -67.69969 -95.196701 
	-58.008214 -93.19766 -0.008289035 -2.5211074 
	-0.0086204232 -2.6107391 -58.364227 -93.930494 -67.69969 -95.196701 -32.2304 85.999562 
	-48.313055 86.130625 -63.841408 85.687522 
	-58.363038 -93.347437 -0.00504049 -2.8015063 -58.008214 -93.19766 -48.313055 86.130625 
	-38.135667 85.8601 -47.805986 86.18587 
	-67.699696 -95.195078 -58.009526 -93.768147 -0.008289035 -2.5211074 -63.841408 85.687522 
	-47.805986 86.18587 -32.619591 86.075527 
1.2e+009 -31.485101 85.915972 -47.558968 85.913241 -63.086857 85.461031 -0.0094016919 -2.8463905 
	-57.610183 -93.873143 -66.945816 -95.728995 
	-47.558968 85.913241 -37.391906 85.787926 -47.051789 85.97513 -57.610943 -94.509274 
	-0.0054194487 -3.0552382 -57.256242 -94.338059 
	-63.086857 85.461031 -47.051789 85.97513 -31.87441 86.003838 -66.945807 -95.730765 
	-57.255327 -93.715627 -0.009026648 -2.7486646 
	-0.0094016919 -2.8463905 -57.610943 -94.509274 -66.945807 -95.730765 -31.484715 85.821858 
	-47.558332 85.85202 -63.087505 85.330791 
	-57.610183 -93.873143 -0.0054194487 -3.0552382 -57.255327 -93.715627 -47.558332 85.85202 
	-37.390772 85.673074 -47.051215 85.912813 
	-66.945816 -95.728995 -57.256242 -94.338059 -0.009026648 -2.7486646 -63.087505 85.330791 
	-47.051215 85.912813 -31.874019 85.906681 
1.3e+009 -30.798924 85.738741 -46.864921 85.639834 -62.393575 85.115499 -0.01021673 -3.0819555 
	-56.917818 -94.398686 -66.252543 -96.262415 
	-46.864921 85.639834 -36.706299 85.601658 -46.357683 85.707354 -56.918063 -95.087888 
	-0.0058059753 -3.3089337 -56.56336 -94.907813 
	-62.393575 85.115499 -46.357683 85.707354 -31.188324 85.835594 -66.25253 -96.264332 
	-56.562926 -94.233436 -0.0097948606 -2.9761394 
	-0.01021673 -3.0819555 -56.918063 -95.087888 -66.25253 -96.264332 -30.798527 85.636633 
	-46.864217 85.573511 -62.39433 84.974426 
	-56.917818 -94.398686 -0.0058059753 -3.3089337 -56.562926 -94.233436 -46.864217 85.573511 
	-36.7051 85.47703 -46.357048 85.639848 
	-66.252543 -96.262415 -56.56336 -94.907813 -0.0097948606 -2.9761394 -62.39433 84.974426 
	-46.357048 85.639848 -31.187922 85.730182 
1.4e+009 -30.16346 85.555387 -46.222506 85.366521 -61.752027 84.770295 -0.01106654 -3.3174396 
	-56.276965 -94.924083 -65.610891 -96.795402 
	-46.222506 85.366521 -36.071168 85.408025 -45.715204 85.439667 -56.276608 -95.666349 
	-0.0062007056 -3.5625974 -55.921903 -95.477422 
	-61.752027 84.770295 -45.715204 85.439667 -30.552933 85.661118 -65.610874 -96.797467 
	-55.922034 -94.751102 -0.010594652 -3.2035375 
	-0.01106654 -3.3174396 -56.276608 -95.666349 -65.610874 -96.797467 -30.163052 85.44528 
	-46.221732 85.295093 -61.752898 84.618387 
	-56.276965 -94.924083 -0.0062007056 -3.5625974 -55.922034 -94.751102 -46.221732 85.295093 
	-36.069903 85.273626 -45.714506 85.36697 
	-65.610891 -96.795402 -55.921903 -95.477422 -0.010594652 -3.2035375 -61.752898 84.618387 
	-45.714506 85.36697 -30.552521 85.547447 
1.5e+009 -29.571741 85.366969 -45.624603 85.093295 -61.155092 84.425387 -0.01195194 -3.5528471 
	-55.680508 -95.449347 -65.013736 -97.328007 
	-45.624603 85.093295 -35.479571 85.208285 -45.117233 85.172064 -55.679463 -96.244665 
	-0.0066041643 -3.8162331 -55.324755 -96.046893 
	-61.155092 84.425387 -45.117233 85.172064 -29.961269 85.481487 -65.013715 -97.330218 
	-55.325534 -95.268641 -0.011426821 -3.4308631 
	-0.01195194 -3.5528471 -55.679463 -96.244665 -65.013715 -97.330218 -29.571322 85.248859 
	-45.623758 85.016761 -61.156088 84.262642 
	-55.680508 -95.449347 -0.0066041643 -3.8162331 -55.325534 -95.268641 -45.623758 85.016761 
	-35.478239 85.064123 -45.116471 85.094173 
	-65.013736 -97.328007 -55.324755 -96.046893 -0.011426821 -3.4308631 -61.156088 84.262642 
	-45.116471 85.094173 -29.960847 85.359552 
1.6e+009 -29.018143 85.174307 -45.065475 84.820155 -60.597029 84.080752 -0.012873605 -3.7881816 
	-55.122711 -95.974488 -64.455338 -97.860267 
	-45.065475 84.820155 -34.925909 85.003416 -44.558032 84.904541 -55.120891 -96.822841 
	-0.0070167911 -4.0698439 -54.76618 -96.616231 
	-60.597029 84.080752 -44.558032 84.904541 -29.407714 85.297535 -64.455311 -97.862625 
	-54.767689 -95.786062 -0.01229203 -3.6581198 
	-0.012873605 -3.7881816 -55.120891 -96.822841 -64.455311 -97.862625 -29.017714 85.048191 
	-45.064556 84.738512 -60.598158 83.907167 
	-55.122711 -95.974488 -0.0070167911 -4.0698439 -54.767689 -95.786062 -45.064556 84.738512 
	-34.92451 84.849499 -44.557203 84.821455 
	-64.455338 -97.860267 -54.76618 -96.616231 -0.01229203 -3.6581198 -60.598158 83.907167 
	-44.557203 84.821455 -29.407282 85.167334 
1.7e+009 -28.498066 84.97805 -44.540428 84.547096 -60.073141 83.736372 -0.0138321 -4.0234455 
	-54.59888 -96.499516 -63.930998 -98.392211 
	-44.540428 84.547096 -34.405596 84.794188 -44.032906 84.637095 -54.5962 -97.400877 
	-0.0074389589 -4.3234324 -54.241485 -97.18544 
	-60.073141 83.736372 -44.032906 84.637095 -28.887666 85.109922 -63.930966 -98.394716 
	-54.243808 -96.303373 -0.013190832 -3.8853101 
	-0.0138321 -4.0234455 -54.5962 -97.400877 -63.930966 -98.394716 -28.497627 84.843925 
	-44.539433 84.460341 -60.074413 83.551942 
	-54.59888 -96.499516 -0.0074389589 -4.3234324 -54.243808 -96.303373 -44.539433 84.460341 
	-34.404129 84.630528 -44.03201 84.548811 
	-63.930998 -98.392211 -54.241485 -97.18544 -0.013190832 -3.8853101 -60.074413 83.551942 
	-44.03201 84.548811 -28.887225 84.97145 
1.8e+009 -28.007694 84.778717 -44.045573 84.274117 -59.579539 83.392232 -0.014827899 -4.258641 
	-54.10513 -97.024435 -63.436828 -98.923862 
	-44.045573 84.274117 -33.914833 84.581219 -43.537969 84.369725 -54.101503 -97.978776 
	-0.0078709873 -4.577001 -53.746783 -97.754519 
	-59.579539 83.392232 -43.537969 84.369725 -28.397312 84.919176 -63.43679 -98.926514 
	-53.750004 -96.820581 -0.014123692 -4.1124361 
	-0.014827899 -4.258641 -54.101503 -97.978776 -63.43679 -98.926514 -28.007245 84.636582 
	-44.0445 84.182248 -59.580962 83.196955 
	-54.10513 -97.024435 -0.0078709873 -4.577001 -53.750004 -96.820581 -44.0445 84.182248 
	-33.913297 84.407827 -43.537004 84.276241 
	-63.436828 -98.923862 -53.746783 -97.754519 -0.014123692 -4.1124361 -59.580962 83.196955 
	-43.537004 84.276241 -28.396862 84.772431 
1.9e+009 -27.543832 84.57673 -43.577653 84.001218 -59.112965 83.048323 -0.015861405 -4.4937695 
	-53.638205 -97.549249 -62.969568 -99.455237 
	-43.577653 84.001218 -33.450433 84.365008 -43.069962 84.102429 -53.633544 -98.556536 
	-0.0083131532 -4.8305517 -53.27882 -98.32347 
	-59.112965 83.048323 -43.069962 84.102429 -27.933458 84.725726 -62.969524 -99.458036 
	-53.28302 -97.33769 -0.015091007 -4.3394995 
	-0.015861405 -4.4937695 -53.633544 -98.556536 -62.969524 -99.458036 -27.543372 84.426581 
	-43.576501 83.90423 -59.114548 82.842193 
	-53.638205 -97.549249 -0.0083131532 -4.8305517 -53.28302 -97.33769 -43.576501 83.90423 
	-33.448828 84.1819 -43.068926 84.003742 
	-62.969568 -99.455237 -53.27882 -98.32347 -0.015091007 -4.3394995 -59.114548 82.842193 
	-43.068926 84.003742 -27.932998 84.570706 
2e+009 -27.103772 84.372435 -43.133914 83.728396 -58.670661 82.704636 -0.01693296 -4.7288321 
	-53.195349 -98.073963 -62.526462 -99.98635 
	-43.133914 83.728396 -33.0097 84.145969 -42.626131 83.835205 -53.18957 -99.134153 
	-0.0087656987 -5.0840863 -52.834839 -98.892288 
	-58.670661 82.704636 -42.626131 83.835205 -27.493397 84.529922 -62.526411 -99.989295 
	-52.840102 -97.854703 -0.016093114 -4.5665013 
	-0.01693296 -4.7288321 -53.18957 -99.134153 -62.526411 -99.989295 -27.103302 84.214272 
	-43.13268 83.626287 -58.672414 82.487648 
	-53.195349 -98.073963 -0.0087656987 -5.0840863 -52.840102 -97.854703 -43.13268 83.626287 
	-33.008024 83.953161 -42.625022 83.731312 
	-62.526462 -99.98635 -52.834839 -98.892288 -0.016093114 -4.5665013 -58.672414 82.487648 
	-42.625022 83.731312 -27.492927 84.366625 
2.1e+009 -26.685205 84.166119 -42.712003 83.455651 -58.250276 82.361165 -0.018042858 -4.9638295 
	-52.774212 -98.598579 -62.105156 -100.51721 
	-42.712003 83.455651 -32.590331 83.924443 -42.204123 83.568053 -52.767228 -99.711626 
	-0.0092288367 -5.3376064 -52.412491 -99.460972 
	-58.250276 82.361165 -42.204123 83.568053 -27.074819 84.332059 -62.105099 -100.5203 
	-52.4189 -98.371624 -0.017130303 -4.7934426 
	-0.018042858 -4.9638295 -52.767228 -99.711626 -62.105099 -100.5203 -26.684725 83.999941 
	-42.710685 83.348418 -58.252207 82.133313 
	-52.774212 -98.598579 -0.0092288367 -5.3376064 -52.4189 -98.371624 -42.710685 83.348418 
	-32.588584 83.721951 -42.20294 83.458951 
	-62.105156 -100.51721 -52.412491 -99.460972 -0.017130303 -4.7934426 -58.252207 82.133313 
	-42.20294 83.458951 -27.074341 84.160483 
2.2e+009 -26.286141 83.958024 -42.309898 83.182983 -57.849785 82.017904 -0.01919135 -5.1987624 
	-52.372771 -99.123097 -61.703627 -101.04783 
	-42.309898 83.182983 -32.190344 83.700715 -41.801916 83.300973 -52.364498 -100.28895 
	-0.0097027564 -5.5911134 -52.009753 -100.02952 
	-57.849785 82.017904 -41.801916 83.300973 -26.675737 84.13238 -61.703562 -101.05107 
	-52.017391 -98.888453 -0.018202824 -5.0203238 
	-0.01919135 -5.1987624 -52.364498 -100.28895 -61.703562 -101.05107 -26.285651 83.783829 
	-42.308494 83.070622 -57.851903 81.779183 
	-52.372771 -99.123097 -0.0097027564 -5.5911134 -52.017391 -98.888453 -42.308494 83.070622 
	-32.188524 83.488559 -41.800657 83.186659 
	-61.703627 -101.04783 -52.009753 -100.02952 -0.018202824 -5.0203238 -57.851903 81.779183 
	-41.800657 83.186659 -26.67525 83.952525 
2.3e+009 -25.904856 83.748354 -41.925843 82.910392 -57.467433 81.674851 -0.020378653 -5.433631 
	-51.989275 -99.647519 -61.320121 -101.57821 
	-41.925843 82.910392 -31.80802 83.475027 -41.417756 83.033964 -51.979625 -100.86612 
	-0.010187627 -5.8446086 -51.624873 -100.59792 
	-57.467433 81.674851 -41.417756 83.033964 -26.294427 83.931094 -61.320047 -101.5816 
	-51.633821 -99.405192 -0.019310893 -5.2471454 
	-0.020378653 -5.433631 -51.979625 -100.86612 -61.320047 -101.5816 -25.904356 83.566142 
	-41.924352 82.792899 -57.469748 81.425255 
	-51.989275 -99.647519 -0.010187627 -5.8446086 -51.633821 -99.405192 -41.924352 82.792899 
	-31.806126 83.253227 -41.41642 82.914435 
	-61.320121 -101.57821 -51.624873 -100.59792 -0.019310893 -5.2471454 -57.469748 81.425255 
	-41.41642 82.914435 -26.29393 83.742958 
2.4e+009 -25.539846 83.537281 -41.558311 82.637877 -57.101692 81.332003 -0.021604953 -5.6684353 
	-51.622192 -100.17184 -60.953106 -102.10836 
	-41.558311 82.637877 -31.441858 83.247585 -41.050113 82.767027 -51.611082 -101.44313 
	-0.010683599 -6.0980931 -51.256321 -101.16617 
	-57.101692 81.332003 -41.050113 82.767027 -25.929384 83.728377 -60.953025 -102.11189 
	-51.266662 -99.92184 -0.020454695 -5.4739075 
	-0.021604953 -5.6684353 -51.611082 -101.44313 -60.953025 -102.11189 -25.539335 83.347053 
	-41.55673 82.515249 -57.104212 81.071524 
	-51.622192 -100.17184 -0.010683599 -6.0980931 -51.266662 -99.92184 -41.55673 82.515249 
	-31.439889 83.016164 -41.048698 82.642278 
	-60.953106 -102.10836 -51.256321 -101.16617 -0.020454695 -5.4739075 -57.104212 81.071524 
	-41.048698 82.642278 -25.928878 83.531959 
2.5e+009 -25.18979 83.324957 -41.205959 82.36544 -56.751217 80.989359 -0.022870411 -5.9031753 
	-51.270183 -100.69607 -60.601241 -102.63828 
	-41.205959 82.36544 -31.090543 83.018566 -40.697646 82.50016 -51.257527 -102.01997 
	-0.011190811 -6.351568 -50.902756 -101.73427 
	-56.751217 80.989359 -40.697646 82.50016 -25.579288 83.52438 -60.601151 -102.64196 
	-50.914573 -100.4384 -0.021634392 -5.7006103 
	-0.022870411 -5.9031753 -51.257527 -102.01997 -60.601151 -102.64196 -25.189268 83.126711 
	-41.204287 82.237671 -56.753952 80.71799 
	-51.270183 -100.69607 -0.011190811 -6.351568 -50.914573 -100.4384 -41.204287 82.237671 
	-31.088498 82.777545 -40.696149 82.370189 
	-60.601241 -102.63828 -50.902756 -101.73427 -0.021634392 -5.7006103 -56.753952 80.71799 
	-40.696149 82.370189 -25.578772 83.31968 
2.6e+009 -24.853522 83.111509 -40.867603 82.093081 -56.414826 80.646919 -0.024175163 -6.1378506 
	-50.932064 -101.2202 -60.263342 -103.16797 
	-40.867603 82.093081 -30.752912 82.78812 -40.35917 82.233366 -50.917776 -102.59664 
	-0.011709387 -6.6050343 -50.562995 -102.30222 
	-56.414826 80.646919 -40.35917 82.233366 -25.242975 83.319235 -60.263242 -103.17179 
	-50.576369 -100.95486 -0.022850124 -5.9272534 
	-0.024175163 -6.1378506 -50.917776 -102.59664 -60.263242 -103.17179 -24.85299 82.905246 
	-40.865837 81.960168 -56.417784 80.364652 
	-50.932064 -101.2202 -0.011709387 -6.6050343 -50.576369 -100.95486 -40.865837 81.960168 
	-30.75079 82.537525 -40.357591 82.098168 
	-60.263342 -103.16797 -50.562995 -102.30222 -0.022850124 -5.9272534 -56.417784 80.364652 
	-40.357591 82.098168 -25.242449 83.106252 
2.7e+009 -24.530009 82.897049 -40.542194 81.8208 -56.091467 80.304681 -0.025519329 -6.372461 
	-50.606785 -101.74423 -59.938357 -103.69743 
	-40.542194 81.8208 -30.427934 82.55638 -40.033635 81.966644 -50.590781 -103.17313 
	-0.012239441 -6.8584928 -50.235989 -102.86999 
	-56.091467 80.304681 -40.033635 81.966644 -24.919409 83.113055 -59.938248 -103.7014 
	-50.251003 -101.47124 -0.02410201 -6.1538368 
	-0.025519329 -6.372461 -50.590781 -103.17313 -59.938248 -103.7014 -24.529465 82.682769 
	-40.540332 81.682738 -56.094658 80.011508 
	-50.606785 -101.74423 -0.012239441 -6.8584928 -50.251003 -101.47124 -40.540332 81.682738 
	-30.425733 82.296238 -40.031972 81.826216 
	-59.938357 -103.69743 -50.235989 -102.86999 -0.02410201 -6.1538368 -56.094658 80.011508 
	-40.031972 81.826216 -24.918873 82.89179 
2.8e+009 -24.218328 82.681676 -40.228794 81.548598 -55.780205 79.962647 -0.026903008 -6.607006 
	-50.293411 -102.26817 -59.625351 -104.22667 
	-40.228794 81.548598 -30.114691 82.323462 -39.720107 81.699994 -50.275606 -103.74943 
	-0.012781078 -7.1119444 -49.920803 -103.43759 
	-55.780205 79.962647 -39.720107 81.699994 -24.607671 82.905939 -59.625232 -104.23079 
	-49.937537 -101.98752 -0.025390154 -6.3803601 
	-0.026903008 -6.607006 -50.275606 -103.74943 -59.625232 -104.23079 -24.217774 82.459379 
	-40.226835 81.405382 -55.783637 79.65856 
	-50.293411 -102.26817 -0.012781078 -7.1119444 -49.937537 -101.98752 -40.226835 81.405382 
	-30.11241 82.053798 -39.718358 81.554332 
	-59.625351 -104.22667 -49.920803 -103.43759 -0.025390154 -6.3803601 -55.783637 79.65856 
	-39.718358 81.554332 -24.607125 82.676392 
2.9e+009 -23.917656 82.465475 -39.926569 81.276476 -55.480202 79.620818 -0.028326285 -6.8414849 
	-49.991106 -102.79199 -59.323488 -104.75568 
	-39.926569 81.276476 -29.812361 82.089465 -39.417747 81.433418 -49.971416 -104.32554 
	-0.013334394 -7.3653898 -49.6166 -104.00501 
	-55.480202 79.620818 -39.417747 81.433418 -24.306935 82.697976 -59.323358 -104.75994 
	-49.635137 -102.5037 -0.026714645 -6.6068228 
	-0.028326285 -6.8414849 -49.971416 -104.32554 -59.323358 -104.75994 -23.91709 82.235163 
	-39.92451 81.128102 -55.483885 79.305806 
	-49.991106 -102.79199 -0.013334394 -7.3653898 -49.635137 -102.5037 -39.92451 81.128102 
	-29.809998 81.81031 -39.415911 81.282517 
	-59.323488 -104.75568 -49.6166 -104.00501 -0.026714645 -6.6068228 -55.483885 79.305806 
	-39.415911 81.282517 -24.306379 82.460146 
3e+009 -23.627252 82.248523 -39.634766 81.004435 -55.190707 79.279194 -0.029789231 -7.0758972 
	-49.699118 -103.31572 -59.032014 -105.28446 
	-39.634766 81.004435 -29.520204 81.85448 -39.125805 81.166917 -49.677458 -104.90144 
	-0.013899478 -7.6188297 -49.322629 -104.57224 
	-55.190707 79.279194 -39.125805 81.166917 -24.016462 82.489242 -59.031874 -105.28887 
	-49.34305 -103.01979 -0.028075557 -6.8332243 
	-0.029789231 -7.0758972 -49.677458 -104.90144 -59.031874 -105.28887 -23.626674 82.010196 
	-39.632605 80.850897 -55.19465 78.953249 
	-49.699118 -103.31572 -0.013899478 -7.6188297 -49.34305 -103.01979 -39.632605 80.850897 
	-29.517759 81.565862 -39.123879 81.010771 
	-59.032014 -105.28446 -49.322629 -104.57224 -0.028075557 -6.8332243 -55.19465 78.953249 
	-39.123879 81.010771 -24.015895 82.243131 
3.1e+009 -23.346447 82.030886 -39.352707 80.732475 -54.911041 78.937778 -0.031291906 -7.310242 
	-49.416769 -103.83933 -58.750253 -105.81301 
	-39.352707 80.732475 -29.237555 81.618584 -38.843602 80.90049 -49.393057 -105.47714 
	-0.014476414 -7.8722649 -49.038214 -105.13928 
	-54.911041 78.937778 -38.843602 80.90049 -23.735583 82.279806 -58.750101 -105.81757 
	-49.0606 -103.53577 -0.029472953 -7.0595642 
	-0.031291906 -7.310242 -49.393057 -105.47714 -58.750101 -105.81757 -23.345857 81.784546 
	-39.350443 80.573769 -54.915254 78.60089 
	-49.416769 -103.83933 -0.014476414 -7.8722649 -49.0606 -103.53577 -39.350443 80.573769 
	-29.235025 81.320535 -38.841586 80.739096 
	-58.750253 -105.81301 -49.038214 -105.13928 -0.029472953 -7.0595642 -54.915254 78.60089 
	-38.841586 80.739096 -23.735005 82.025413 
3.2e+009 -23.074637 81.812626 -39.079779 80.460599 -54.640591 78.596572 -0.032834356 -7.5445187 
	-49.143448 -104.36284 -58.47759 -106.34133 
	-39.079779 80.460599 -28.96381 81.381847 -38.570526 80.634139 -49.117598 -106.05261 
	-0.015065278 -8.1256959 -48.76274 -105.70612 
	-54.640591 78.596572 -38.570526 80.634139 -23.463693 82.069729 -58.477427 -106.34603 
	-48.787172 -104.05166 -0.030906887 -7.2858417 
	-0.032834356 -7.5445187 -49.117598 -106.05261 -58.477427 -106.34603 -23.074035 81.558273 
	-39.077409 80.296719 -54.645083 78.24873 
	-49.143448 -104.36284 -0.015065278 -8.1256959 -48.787172 -104.05166 -39.077409 80.296719 
	-28.961194 81.074399 -38.568418 80.467493 
	-58.47759 -106.34133 -48.76274 -105.70612 -0.030906887 -7.2858417 -54.645083 78.24873 
	-38.568418 80.467493 -23.463105 81.807056 
3.3e+009 -22.811273 81.593795 -38.815425 80.188807 -54.378801 78.255578 -0.034416619 -7.7787264 
	-48.878598 -104.88623 -58.213469 -106.86941 
	-38.815425 80.188807 -28.698422 81.144332 -38.30602 80.367866 -48.850527 -106.62786 
	-0.015666145 -8.3791233 -48.495654 -106.27274 
	-54.378801 78.255578 -38.30602 80.367866 -23.200245 81.859065 -58.213294 -106.87426 
	-48.522212 -104.56744 -0.0323774 -7.5120562 
	-0.034416619 -7.7787264 -48.850527 -106.62786 -58.213294 -106.87426 -22.810658 81.331432 
	-38.812949 80.019747 -54.38358 77.896771 
	-48.878598 -104.88623 -0.015666145 -8.3791233 -48.522212 -104.56744 -38.812949 80.019747 
	-28.695719 80.827519 -38.303818 80.195961 
	-58.213469 -106.86941 -48.495654 -106.27274 -0.0323774 -7.5120562 -54.38358 77.896771 
	-38.303818 80.195961 -23.199645 81.588113 
3.4e+009 -22.555855 81.374443 -38.55914 79.9171 -54.125162 77.914797 -0.036038722 -8.0128641 
	-48.621712 -105.40951 -57.957384 -107.39726 
	-38.55914 79.9171 -28.440892 80.906094 -38.049577 80.10167 -48.591337 -107.20288 
	-0.016279081 -8.6325477 -48.236447 -106.83915 
	-54.125162 77.914797 -38.049577 80.10167 -22.944737 81.647864 -57.957196 -107.40225 
	-48.265212 -105.08311 -0.033884528 -7.7382069 
	-0.036038722 -8.0128641 -48.591337 -107.20288 -57.957196 -107.40225 -22.555227 81.10407 
	-38.556554 79.742855 -54.130239 77.545014 
	-48.621712 -105.40951 -0.016279081 -8.6325477 -48.265212 -105.08311 -38.556554 79.742855 
	-28.438101 80.579951 -38.047279 79.924503 
	-57.957384 -107.39726 -48.236447 -106.83915 -0.033884528 -7.7382069 -54.130239 77.545014 
	-38.047279 79.924503 -22.944126 81.368633 
3.5e+009 -22.307926 81.154612 -38.310459 79.64548 -53.879213 77.574234 -0.037700686 -8.2469309 
	-48.372327 -105.93266 -57.708871 -107.92486 
	-38.310459 79.64548 -28.190766 80.667183 -37.800735 79.835553 -48.339566 -107.77765 
	-0.016904151 -8.8859697 -47.984658 -107.40533 
	-53.879213 77.574234 -37.800735 79.835553 -22.696715 81.436169 -57.70867 -107.93 
	-48.015711 -105.59867 -0.035428295 -7.9642929 
	-0.037700686 -8.2469309 -48.339566 -107.77765 -57.70867 -107.93 -22.307286 80.876232 
	-38.307762 79.466043 -53.884597 77.193463 
	-48.372327 -105.93266 -0.016904151 -8.8859697 -48.015711 -105.59867 -38.307762 79.466043 
	-28.187885 80.331746 -37.798339 79.653118 
	-57.708871 -107.92486 -47.984658 -107.40533 -0.035428295 -7.9642929 -53.884597 77.193463 
	-37.798339 79.653118 -22.696092 81.148661 
3.6e+009 -22.067069 80.934342 -38.06896 79.373948 -53.64053 77.23389 -0.039402523 -8.4809259 
	-48.130021 -106.4557 -57.467507 -108.45222 
	-38.06896 79.373948 -27.947626 80.427645 -37.559069 79.569517 -48.09479 -108.35217 
	-0.017541416 -9.1393896 -47.739865 -107.97127 
	-53.64053 77.23389 -37.559069 79.569517 -22.455759 81.224021 -57.467293 -108.4575 
	-47.773285 -106.11411 -0.037008721 -8.1903134 
	-0.039402523 -8.4809259 -48.09479 -108.35217 -57.467293 -108.4575 -22.066415 80.647956 
	-38.066149 79.189314 -53.646229 76.842119 
	-48.130021 -106.4557 -0.017541416 -9.1393896 -47.773285 -106.11411 -38.066149 79.189314 
	-27.944653 80.082951 -37.556575 79.381808 
	-57.467507 -108.45222 -47.739865 -107.97127 -0.037008721 -8.1903134 -53.646229 76.842119 
	-37.556575 79.381808 -22.455124 80.928236 
3.7e+009 -21.8329 80.713669 -37.834254 79.102506 -53.408724 76.893768 -0.041144236 -8.714848 
	-47.894406 -106.97861 -57.232903 -108.97933 
	-37.834254 79.102506 -27.711089 80.187519 -37.324192 79.303562 -47.856623 -108.92642 
	-0.018190935 -9.392808 -47.501678 -108.53698 
	-53.408724 76.893768 -37.324192 79.303562 -22.221486 81.011455 -57.232675 -108.98476 
	-47.537545 -106.62944 -0.038625817 -8.4162677 
	-0.041144236 -8.714848 -47.856623 -108.92642 -57.232675 -108.98476 -21.832232 80.41928 
	-37.831328 78.912667 -53.414748 76.490985 
	-47.894406 -106.97861 -0.018190935 -9.392808 -47.537545 -106.62944 -37.831328 78.912667 
	-27.708024 79.833607 -37.321597 79.110573 
	-57.232903 -108.97933 -47.501678 -108.53698 -0.038625817 -8.4162677 -53.414748 76.490985 
	-37.321597 79.110573 -22.220839 80.707396 
3.8e+009 -21.605065 80.492626 -37.605984 78.831153 -53.183437 76.553873 -0.042925825 -8.9486962 
	-47.665123 -107.50139 -57.004701 -109.50619 
	-37.605984 78.831153 -27.480804 79.946843 -37.095745 79.03769 -47.624706 -109.50041 
	-0.018852762 -9.6462254 -47.269741 -109.10243 
	-53.183437 76.553873 -37.095745 79.03769 -21.993544 80.798505 -57.004459 -109.51176 
	-47.308134 -107.14465 -0.040279588 -8.6421546 
	-0.042925825 -8.9486962 -47.624706 -109.50041 -57.004459 -109.51176 -21.604383 80.190234 