! AWR Design Environment (8379) Fri Oct 20 13:10:57 2017
! Document = 'SNP file for bond wire array'
! nPorts: 6, nXvals: 303

# HZ S DB R 50
!Freq DBS11 AngS11 DBS12 AngS12 DBS13 AngS13 DBS14 AngS14 
!	DBS15 AngS15 DBS16 AngS16 
!	DBS21 AngS21 DBS22 AngS22 DBS23 AngS23 DBS24 AngS24 
!	DBS25 AngS25 DBS26 AngS26 
!	DBS31 AngS31 DBS32 AngS32 DBS33 AngS33 DBS34 AngS34 
!	DBS35 AngS35 DBS36 AngS36 
!	DBS41 AngS41 DBS42 AngS42 DBS43 AngS43 DBS44 AngS44 
!	DBS45 AngS45 DBS46 AngS46 
!	DBS51 AngS51 DBS52 AngS52 DBS53 AngS53 DBS54 AngS54 
!	DBS55 AngS55 DBS56 AngS56 
!	DBS61 AngS61 DBS62 AngS62 DBS63 AngS63 DBS64 AngS64 
!	DBS65 AngS65 DBS66 AngS66 
0 -96.734623 -0 -0.00012649879 -0 -800 0 -800 0 
	-800 0 -800 0 
	-0.00012649877 -0 -96.734622 -0 -800 0 -800 0 
	-800 0 -800 0 
	-800 0 -800 0 -96.976198 -0 -0.00012302903 -0 
	-800 0 -800 0 
	-800 0 -800 0 -0.00012302903 -0 -96.976198 -0 
	-800 0 -800 0 
	-800 0 -800 0 -800 0 -800 0 
	-97.843817 -0 -0.00011133361 -0 
	-800 0 -800 0 -800 0 -800 0 
	-0.00011133359 -0 -97.843816 -0 
1000000 -81.028821 -111.15371 -0.00053168714 -0.0058422823 -90.307223 40.75492 -90.656696 37.985926 
	-92.746674 1.8154448 -92.729731 3.9836785 
	-0.00053168715 -0.0058422821 -81.028873 -111.15356 -90.656683 37.987339 -90.307352 40.754772 
	-92.729876 3.9827631 -92.746689 1.8155158 
	-90.307223 40.754921 -90.656683 37.98734 -80.913065 -111.11271 -0.00052860906 -0.0058957842 
	-92.526799 12.976491 -92.418276 15.724509 
	-90.656696 37.985926 -90.307353 40.754773 -0.00052860905 -0.0058957842 -80.913094 -111.11232 
	-92.418473 15.7245 -92.52679 12.976618 
	-92.746674 1.8154447 -92.729876 3.9827629 -92.526799 12.976491 -92.418473 15.724499 
	-82.184761 -115.73171 -0.00051604185 -0.0049829042 
	-92.729731 3.9836783 -92.746689 1.8155156 -92.418276 15.724509 -92.52679 12.976618 
	-0.00051604184 -0.0049829042 -82.184711 -115.73171 
10000000 -61.622371 -92.490722 -0.00056999467 -0.058399161 -73.938964 82.265145 -74.769911 81.508767 
	-92.332278 17.599455 -91.030966 34.823532 
	-0.00056999467 -0.058399161 -61.622395 -92.492218 -74.769854 81.521754 -73.93912 82.264641 
	-91.033457 34.825051 -92.33286 17.601647 
	-73.938964 82.265145 -74.769854 81.521754 -61.494665 -92.537739 -0.00057841259 -0.058882567 
	-84.724245 66.278738 -83.234147 70.143335 
	-74.769911 81.508767 -73.93912 82.264641 -0.00057841259 -0.058882567 -61.494686 -92.537387 
	-83.235295 70.161269 -84.723976 66.275975 
	-92.332278 17.599454 -91.033457 34.825051 -84.724245 66.278738 -83.235295 70.161269 
	-63.078006 -92.887473 -0.00053279865 -0.049815921 
	-91.030966 34.823532 -92.33286 17.601647 -83.234147 70.143335 -84.723976 66.275975 
	-0.00053279864 -0.049815921 -63.077974 -92.884563 
1e+008 -41.615187 -91.097559 -0.0014402988 -0.58307642 -54.012809 86.821899 -54.856311 86.448907 
	-82.273666 71.867128 -75.796401 81.358117 
	-0.0014402988 -0.58307642 -41.615066 -91.112887 -54.856089 86.576805 -54.01307 86.817642 
	-75.804204 81.591395 -82.277672 71.999035 
	-54.012809 86.821899 -54.856089 86.576805 -41.48708 -91.242066 -0.0016237547 -0.58785657 
	-65.465794 85.25843 -63.751442 85.966372 
	-54.856311 86.448907 -54.01307 86.817642 -0.0016237547 -0.58785657 -41.487226 -91.239353 
	-63.752905 86.169058 -65.465354 85.222562 
	-82.273666 71.867128 -75.804204 81.591395 -65.465794 85.25843 -63.752905 86.169058 
	-43.072659 -90.887266 -0.0010374376 -0.49738758 
	-75.796401 81.358116 -82.277672 71.999035 -63.751442 85.966372 -65.465354 85.222562 
	-0.0010374376 -0.49738758 -43.072632 -90.857648 
2e+008 -35.589883 -91.626613 -0.0030561385 -1.1652044 -47.997251 86.022924 -48.840199 85.511913 
	-76.544996 79.565005 -69.837158 84.903361 
	-0.0030561385 -1.1652044 -35.589586 -91.657346 -48.840285 85.766124 -47.997628 86.01476 
	-69.845983 85.380367 -76.547051 79.84264 
	-47.997251 86.022924 -48.840285 85.766124 -35.461963 -91.805431 -0.0034941482 -1.1747339 
	-59.4557 85.151547 -57.739211 85.747071 
	-48.840199 85.511913 -47.997628 86.01476 -0.0034941482 -1.1747339 -35.462276 -91.800299 
	-57.741498 86.152304 -59.454928 85.07941 
	-76.544996 79.565005 -69.845983 85.380367 -59.4557 85.151547 -57.741498 86.152304 
	-37.046047 -91.30041 -0.0020219693 -0.99403036 
	-69.837158 84.903361 -76.547051 79.84264 -57.739211 85.747071 -59.454928 85.07941 
	-0.0020219693 -0.99403036 -37.046019 -91.241004 
3e+008 -32.06803 -92.213689 -0.0053388431 -1.7469064 -44.4811 85.057491 -45.323157 84.392675 
	-73.070288 81.647053 -66.322025 85.726603 
	-0.0053388431 -1.7469064 -32.067542 -92.25985 -45.323997 84.772945 -44.481599 85.045471 
	-66.332095 86.445155 -73.069998 82.066079 
	-44.4811 85.057491 -45.323997 84.772945 -31.940243 -92.41675 -0.006065161 -1.7611471 
	-55.939595 84.363491 -54.222589 84.967292 
	-45.323157 84.392675 -44.481599 85.045471 -0.006065161 -1.7611471 -31.940747 -92.409238 
	-54.226193 85.574968 -55.938369 84.255116 
	-73.070288 81.647053 -66.332095 86.445155 -55.939595 84.363491 -54.226193 85.574968 
	-33.522699 -91.79222 -0.0034435722 -1.4904286 
	-66.322025 85.726603 -73.069998 82.066079 -54.222589 84.967292 -55.938369 84.255116 
	-0.0034435722 -1.4904286 -33.522671 -91.702994 
4e+008 -29.571337 -92.811069 -0.0082880064 -2.3281363 -41.989403 84.060149 -42.83031 83.238594 
	-70.579655 82.204515 -63.821248 85.838351 
	-0.0082880064 -2.3281363 -29.570643 -92.872681 -42.832316 83.744794 -41.990032 84.044297 
	-63.832917 86.797871 -70.576946 82.763275 
	-41.989403 84.060149 -42.832316 83.744794 -29.443668 -93.034156 -0.009327271 -2.3470454 
	-53.446802 83.426187 -51.729368 84.064772 
	-42.83031 83.238594 -41.990032 84.044297 -0.009327271 -2.3470454 -29.444382 -93.02428 
	-51.734742 84.874929 -53.445 83.281612 
	-70.579655 82.204515 -63.832917 86.797871 -53.446802 83.426187 -51.734742 84.874929 
	-31.024233 -92.300344 -0.0053060913 -1.9865815 
	-63.821248 85.838351 -70.576946 82.763275 -51.729368 84.064772 -53.445 83.281612 
	-0.0053060913 -1.9865815 -31.024204 -92.181275 
5e+008 -27.636678 -93.410687 -0.011899218 -2.9088142 -40.059794 83.053744 -40.899301 82.074592 
	-68.637873 82.161106 -61.878195 85.67186 
	-0.011899218 -2.9088142 -27.63576 -93.487776 -40.90287 82.706654 -40.060561 83.034077 
	-61.891802 86.872156 -68.6327 82.858533 
	-40.059794 83.053744 -40.90287 82.706654 -27.509118 -93.651621 -0.013272674 -2.9323454 
	-51.515579 82.440029 -49.797597 83.122173 
	-40.899301 82.074592 -40.060561 83.034077 -0.013272674 -2.9323454 -27.510059 -93.639386 
	-49.805161 84.134923 -51.513088 82.259296 
	-68.637873 82.161106 -61.891802 86.872156 -51.515579 82.440029 -49.805161 84.134923 
	-29.087496 -92.813249 -0.0076066452 -2.4824585 
	-61.878195 85.67186 -68.6327 82.858533 -49.797597 83.122173 -51.513088 82.259296 
	-0.0076066452 -2.4824585 -29.087471 -92.664315 
6e+008 -26.05779 -94.010136 -0.0161669 -3.4888502 -38.4863 82.044823 -39.324156 80.907763 
	-67.045623 81.846106 -60.288223 85.379608 
	-0.0161669 -3.4888502 -26.056632 -94.102731 -39.329677 81.665649 -38.487209 82.021353 
	-60.304058 86.820636 -67.037884 82.681263 
	-38.4863 82.044823 -39.329677 81.665649 -25.930337 -94.267931 -0.017896347 -3.5169527 
	-49.940112 81.432769 -48.22141 82.162387 
	-39.324156 80.907763 -38.487209 82.021353 -0.017896347 -3.5169527 -25.931521 -94.253334 
	-48.231575 83.377897 -49.93682 81.215927 
	-67.045623 81.846106 -60.304058 86.820636 -49.940112 81.432769 -48.231575 83.377897 
	-27.506222 -93.327546 -0.010342351 -2.9780187 
	-60.288223 85.379608 -67.037884 82.681263 -48.22141 82.162387 -49.93682 81.215927 
	-0.010342351 -2.9780187 -27.506203 -93.148726 
7e+008 -24.724662 -94.608777 -0.021087433 -4.0681492 -37.159036 81.035595 -37.994992 79.740469 
	-65.695078 81.378764 -58.94188 85.016552 
	-0.021087433 -4.0681492 -24.723245 -94.71691 -38.00285 80.624159 -37.160095 81.008336 
	-58.960231 86.698325 -65.684657 82.350711 
	-37.159036 81.035595 -38.00285 80.624159 -24.597311 -94.882888 -0.023194672 -4.1007682 
	-48.61057 80.414191 -46.890965 81.193519 
	-37.994992 79.740469 -37.160095 81.008336 -0.023194672 -4.1007682 -24.598755 -94.865923 
	-46.904138 82.612 -48.606367 80.161292 
	-65.695078 81.378764 -58.960231 86.698325 -48.61057 80.414191 -46.904138 82.612 
	-26.170396 -93.842246 -0.013512438 -3.4732166 
	-58.94188 85.016552 -65.684657 82.350711 -46.890965 81.193519 -48.606367 80.161292 
	-0.013512438 -3.4732166 -26.170386 -93.633517 
8e+008 -23.571626 -95.20632 -0.026656767 -4.6466151 -36.012408 80.027205 -36.846215 78.573915 
	-64.521515 80.814822 -57.773781 84.608287 
	-0.026656767 -4.6466151 -23.569934 -95.330028 -36.856792 79.583405 -36.013623 79.996169 
	-57.794938 86.530858 -64.508319 81.922564 
	-36.012408 80.027205 -36.856792 79.583405 -23.444377 -95.496346 -0.029162811 -4.6836918 
	-47.461389 79.389926 -45.740688 80.220245 
	-36.846215 78.573915 -36.013623 79.996169 -0.029162811 -4.6836918 -23.446095 -95.477005 
	-45.757274 81.841952 -47.456163 79.101027 
	-64.521515 80.814822 -57.794938 86.530858 -47.461389 79.389926 -45.757274 81.841952 
	-25.014354 -94.35686 -0.017115495 -3.9680047 
	-57.773781 84.608287 -64.508319 81.922564 -45.740688 80.220245 -47.456163 79.101027 
	-0.017115495 -3.9680047 -25.014356 -94.118198 
9e+008 -22.556329 -95.802575 -0.032870125 -5.2241515 -35.004101 79.020227 -35.835507 77.408686 
	-63.483088 80.189092 -56.741726 84.170754 
	-0.032870125 -5.2241515 -22.554344 -95.941898 -35.849185 78.543983 -35.005479 78.985427 
	-56.765964 86.334203 -63.467028 81.431572 
	-35.004101 79.020227 -35.849185 78.543983 -22.42918 -96.108235 -0.035795628 -5.2656236 
	-46.450273 78.363083 -44.728281 79.245165 
	-35.835507 77.408686 -35.005479 78.985427 -0.035795628 -5.2656236 -22.431187 -96.086505 
	-44.748679 81.070398 -46.443912 78.038244 
	-63.483088 80.189092 -56.765964 86.334203 -46.450273 78.363083 -44.748679 81.070398 
	-23.995741 -94.871079 -0.021149371 -4.4623349 
	-56.741726 84.170754 -63.467028 81.431572 -44.728281 79.245165 -46.443912 78.038244 
	-0.021149371 -4.4623349 -23.995759 -94.602456 
1e+009 -21.64985 -96.397392 -0.03972204 -5.8006629 -34.105218 78.015022 -34.933974 76.245142 
	-62.551174 79.524296 -55.816885 83.714332 
	-0.03972204 -5.8006629 -21.647554 -96.552374 -34.951133 77.506262 -34.106765 77.976473 
	-55.844453 86.118764 -62.532159 80.900379 
	-34.105218 78.015022 -34.951133 77.506262 -21.5228 -96.7185 -0.043087627 -5.8464641 
	-45.54834 77.335436 -43.824857 78.269778 
	-34.933974 76.245142 -34.106765 77.976473 -0.043087627 -5.8464641 -21.525111 -96.694367 
	-43.849463 80.29888 -45.540731 76.974721 
	-62.551174 79.524296 -55.844453 86.118764 -45.54834 77.335436 -43.849463 80.29888 
	-23.085641 -95.384697 -0.025611485 -4.9561589 
	-55.816885 83.714332 -62.532159 80.900379 -43.824857 78.269778 -45.540731 76.974721 
	-0.025611485 -4.9561589 -23.085678 -95.086085 
1.1e+009 -20.83156 -96.990672 -0.047206882 -6.3760545 -33.295146 77.011861 -34.121 75.083543 
	-61.70533 78.832192 -54.978701 83.244367 
	-0.047206882 -6.3760545 -20.828936 -97.161359 -34.142019 76.470509 -33.296869 76.96958 
	-55.009839 85.889909 -61.683273 80.340675 
	-33.295146 77.011861 -34.142019 76.470509 -20.704608 -97.32709 -0.051032928 -6.4261148 
	-44.734984 76.308031 -43.00981 77.294981 
	-34.121 75.083543 -33.296869 76.96958 -0.051032928 -6.4261148 -20.707238 -97.300536 
	-43.039017 79.528339 -44.726015 75.911506 
	-61.70533 78.832192 -55.009839 85.889909 -44.734984 76.308031 -43.039017 79.528339 
	-22.263428 -95.89761 -0.030499414 -5.4494282 
	-54.978701 83.244367 -61.683273 80.340675 -43.00981 77.294981 -44.726015 75.911506 
	-0.030499414 -5.4494282 -22.263488 -95.568977 
1.2e+009 -20.086226 -97.582334 -0.055318757 -6.9502328 -32.558661 76.010968 -33.381362 73.924101 
	-60.930461 78.118966 -54.212005 82.763649 
	-0.055318757 -6.9502328 -20.083258 -97.768778 -33.406621 75.436943 -32.560567 75.964972 
	-54.246951 85.650446 -60.905279 79.758585 
	-32.558661 76.010968 -33.406621 75.436943 -19.959371 -97.933957 -0.059625388 -7.0044787 
	-43.994986 75.281372 -42.267922 76.321227 
	-33.381362 73.924101 -32.560567 75.964972 -0.059625388 -7.0044787 -19.962333 -97.904965 
	-42.302123 78.759268 -43.984544 74.849105 
	-60.930461 78.118966 -54.246951 85.650446 -43.994986 75.281372 -42.302123 78.759268 
	-21.513873 -96.409771 -0.035810927 -5.9420943 
	-54.212005 82.763649 -60.905279 79.758585 -42.267922 76.321227 -43.984544 74.849105 
	-0.035810927 -5.9420943 -21.513959 -96.051083 
1.3e+009 -19.402279 -98.172295 -0.064051266 -7.5231059 -31.884198 75.012563 -32.703495 72.767024 
	-60.215109 77.388601 -53.505287 82.273964 
	-0.064051266 -7.5231059 -19.398949 -98.374552 -32.733374 74.405779 -31.886295 74.962873 
	-53.544277 85.402182 -60.186729 79.158041 
	-31.884198 75.012563 -32.733374 74.405779 -19.27552 -98.53904 -0.068858375 -7.5814603 
	-43.316787 74.255781 -41.587631 75.348818 
	-32.703495 72.767024 -31.886295 74.962873 -0.068858375 -7.5814603 -19.278828 -98.50759 
	-41.62722 77.992012 -43.304757 73.787845 
	-60.215109 77.388601 -53.544277 85.402182 -43.316787 74.255781 -41.62722 77.992012 
	-20.82541 -96.92114 -0.041543659 -6.4341089 
	-53.505287 82.273964 -60.186729 79.158041 -41.587631 75.348818 -43.304757 73.787845 
	-0.041543659 -6.4341089 -20.825527 -96.532362 
1.4e+009 -18.770724 -98.760465 -0.073397478 -8.0945834 -31.262766 74.016849 -32.078407 71.612504 
	-59.550383 76.644353 -52.849608 81.776767 
	-0.073397478 -8.0945834 -18.767014 -98.978593 -32.113284 73.377215 -31.265061 73.963487 
	-52.892873 85.146595 -59.518738 78.54225 
	-31.262766 74.016849 -32.113284 73.377215 -18.644059 -99.142268 -0.078724733 -8.1569658 
	-42.691398 73.231577 -40.959951 74.378053 
	-32.078407 71.612504 -31.265061 73.963487 -0.078724733 -8.1569658 -18.647727 -99.108338 
	-41.005319 77.22691 -42.677666 72.728047 
	-59.550383 76.644353 -52.892873 85.146595 -42.691398 73.231577 -41.005319 77.22691 
	-20.18905 -97.43167 -0.047694894 -6.9254243 
	-52.849608 81.776767 -59.518738 78.54225 -40.959951 74.378053 -42.677666 72.728047 
	-0.047694894 -6.9254243 -20.189201 -97.012762 
1.5e+009 -18.184427 -99.346758 -0.083350086 -8.6645772 -30.687232 73.024011 -31.498966 70.460713 
	-58.929241 75.888381 -52.237889 81.273016 
	-0.083350086 -8.6645772 -18.180321 -99.580819 -31.53922 72.351427 -30.689734 72.967 
	-52.285654 84.884664 -58.894277 77.913329 
	-30.687232 73.024011 -31.53922 72.351427 -18.057856 -99.743565 -0.089216896 -8.7309036 
	-42.111692 72.209013 -40.377753 73.409173 
	-31.498966 70.460713 -30.689734 72.967 -0.089216896 -8.7309036 -18.061897 -99.707133 
	-40.429294 76.464247 -42.096144 71.669965 
	-58.929241 75.888381 -52.285654 84.884664 -42.111692 72.209013 -40.429294 76.464247 
	-19.597665 -97.941318 -0.054261761 -7.4159931 
	-52.237889 81.273016 -58.894277 77.913329 -40.377753 73.409173 -42.096144 71.669965 
	-0.054261761 -7.4159931 -19.597854 -97.492239 
1.6e+009 -17.637637 -99.931097 -0.093901571 -9.2330006 -30.151844 72.03423 -30.959419 69.31182 
	-58.346025 75.121038 -51.664441 80.762845 
	-0.093901571 -9.2330006 -17.633118 -100.18116 -31.00543 71.328591 -30.15456 71.973598 
	-51.716936 84.61655 -58.307701 77.271603 
	-30.151844 72.03423 -31.00543 71.328591 -17.511158 -100.34286 -0.10032687 -9.3031841 
	-41.571921 71.188293 -39.83529 72.44238 
	-30.959419 69.31182 -30.15456 71.973598 -0.10032687 -9.3031841 -17.515585 -100.3039 
	-39.893394 75.704266 -41.554441 70.613807 
	-58.346025 75.121038 -51.716936 84.61655 -41.571921 71.188293 -39.893394 75.704266 
	-19.045508 -98.450053 -0.061241431 -7.9057681 
	-51.664441 80.762845 -58.307701 77.271603 -39.83529 72.44238 -41.554441 70.613807 
	-0.061241431 -7.9057681 -19.045738 -97.970759 
1.7e+009 -17.125647 -100.5134 -0.10504404 -9.7997693 -29.651894 71.047684 -30.455057 68.16599 
	-57.79612 74.34248 -51.124621 80.246302 
	-0.10504404 -9.7997693 -17.120698 -100.77953 -30.507206 70.308876 -29.654834 70.983458 
	-51.182082 84.342332 -57.754416 76.617212 
	-29.651894 71.047684 -30.507206 70.308876 -16.999259 -100.94005 -0.11204618 -9.8737201 
	-41.06738 70.169653 -39.327857 71.477902 
	-30.455057 68.16599 -29.654834 70.983458 -0.11204618 -9.8737201 -17.004085 -100.89854 
	-39.392914 74.947238 -41.047852 69.55981 
	-57.79612 74.34248 -51.182082 84.342332 -41.06738 70.169653 -39.392914 74.947238 
	-18.527878 -98.95784 -0.068630835 -8.3947031 
	-51.124621 80.246302 -57.754416 76.617212 -39.327857 71.477902 -41.047852 69.55981 
	-0.068630835 -8.3947031 -18.528154 -98.448285 
1.8e+009 -16.644556 -101.09359 -0.11676907 -10.364801 -29.183479 70.064543 -29.981979 67.023381 
	-57.275712 73.553499 -50.614588 79.723735 
	-0.11676907 -10.364801 -16.639161 -101.37586 -30.040644 69.292445 -29.186651 69.996753 
	-50.677247 84.062387 -57.230622 75.95093 
	-29.183479 70.064543 -30.040644 69.292445 -16.518257 -101.53508 -0.12436607 -10.442427 
	-40.594171 69.153228 -38.851556 70.515885 
	-29.981979 67.023381 -29.186651 69.996753 -0.12436607 -10.442427 -16.523494 -101.49099 
	-38.923957 74.193349 -40.572479 68.508113 
	-57.275712 73.553499 -50.677247 84.062387 -40.594171 69.153228 -38.923957 74.193349 
	-18.040882 -99.464641 -0.076426685 -8.8827522 
	-50.614588 79.723735 -57.230622 75.95093 -38.851556 70.515885 -40.572479 68.508113 
	-0.076426685 -8.8827522 -18.041207 -98.924776 
1.9e+009 -16.191095 -101.67159 -0.12906798 -10.928017 -28.743326 69.084972 -29.53691 65.884148 
	-56.781622 72.754303 -50.131133 79.195229 
	-0.12906798 -10.928017 -16.185239 -101.97008 -29.602473 68.279457 -28.746739 69.013652 
	-50.199227 83.776835 -56.733155 75.272963 
	-28.743326 69.084972 -29.602473 68.279457 -16.064884 -102.12786 -0.13727735 -11.009222 
	-40.149025 68.13918 -38.403117 69.556494 
	-29.53691 65.884148 -28.746739 69.013652 -0.13727735 -11.009222 -16.070544 -102.08116 
	-38.483253 73.442808 -40.125052 67.458879 
	-56.781622 72.754303 -50.199227 83.776835 -40.149025 68.13918 -38.483253 73.442808 
	-17.581256 -99.970418 -0.084625558 -9.3698703 
	-50.131133 79.195229 -56.733155 75.272963 -38.403117 69.556494 -40.125052 67.458879 
	-0.084625558 -9.3698703 -17.581633 -99.400191 
2e+009 -15.762497 -102.2473 -0.14193174 -11.489338 -28.328663 68.109133 -29.11708 64.748438 
	-56.311168 71.945141 -49.671551 78.660894 
	-0.14193174 -11.489338 -15.756162 -102.56209 -29.18992 67.270066 -28.332328 68.034319 
	-49.745315 83.48582 -56.25935 74.583558 
	-28.328663 68.109133 -29.18992 67.270066 -15.63637 -102.71831 -0.15077055 -11.574025 
	-39.729176 67.127633 -37.979774 68.599861 
	-29.11708 64.748438 -28.332328 68.034319 -0.15077055 -11.574025 -15.642466 -102.66897 
	-38.068035 72.695791 -39.702803 66.412233 
	-56.311168 71.945141 -49.745315 83.48582 -39.729176 67.127633 -38.068035 72.695791 
	-17.146239 -100.47514 -0.093223887 -9.8560128 
	-49.671551 78.660894 -56.25935 74.583558 -37.979774 68.599861 -39.702803 66.412233 
	-0.093223887 -9.8560128 -17.146672 -99.874491 
2.1e+009 -15.356397 -102.82066 -0.15535103 -12.04869 -27.937124 67.137184 -28.72012 63.616398 
	-55.862074 71.126001 -49.233539 78.120724 
	-0.15535103 -12.04869 -15.349568 -103.15183 -28.800619 66.26442 -27.941049 67.058913 
	-49.313216 83.189377 -55.806946 73.882715 
	-27.937124 67.137184 -28.800619 66.26442 -15.230351 -103.30635 -0.16483583 -12.136759 
	-39.332259 66.118719 -37.579163 67.646128 
	-28.72012 63.616398 -27.941049 67.058913 -0.16483583 -12.136759 -15.236895 -103.25435 
	-37.675938 71.952481 -39.303368 65.368311 
	-55.862074 71.126001 -49.313216 83.189377 -39.332259 66.118719 -37.675938 71.952481 
	-16.733473 -100.97875 -0.10221797 -10.341136 
	-49.233539 78.120724 -55.806946 73.882715 -37.579163 67.646128 -39.303368 65.368311 
	-0.10221797 -10.341136 -16.733966 -100.34764 
2.2e+009 -14.970759 -103.39159 -0.16931627 -12.606001 -27.566666 66.169275 -28.343988 62.488168 
	-55.432389 70.296935 -48.815124 77.574753 
	-0.16931627 -12.606001 -14.963421 -103.73923 -28.432528 65.262665 -27.570862 66.087588 
	-48.900957 82.887582 -55.37401 73.170502 
	-27.566666 66.169275 -28.432528 65.262665 -14.844792 -103.8919 -0.1794631 -12.697349 
	-38.956239 65.11254 -37.199248 66.69541 
	-28.343988 62.488168 -27.570862 66.087588 -0.1794631 -12.697349 -14.851796 -103.83721 
	-37.304926 71.213037 -38.92471 64.327216 
	-55.432389 70.296935 -48.900957 82.887582 -38.956239 65.11254 -37.304926 71.213037 
	-16.340931 -101.48124 -0.11160398 -10.825197 
	-48.815124 77.574753 -55.37401 73.170502 -37.199248 66.69541 -38.92471 64.327216 
	-0.11160398 -10.825197 -16.341487 -100.81959 
2.3e+009 -14.603818 -103.96002 -0.18381757 -13.161201 -27.215519 65.205554 -27.986915 61.363883 
	-55.020433 69.457924 -48.414604 77.022985 
	-0.18381757 -13.161201 -14.595955 -104.32422 -28.083877 64.264941 -27.219996 65.120496 
	-48.506839 82.580481 -54.958877 72.446922 
	-27.215519 65.205554 -28.083877 64.264941 -14.477926 -104.4749 -0.19464196 -13.255724 
	-38.599348 64.109216 -36.838261 65.747834 
	-27.986915 61.363883 -27.219996 65.120496 -0.19464196 -13.255724 -14.4854 -104.41748 
	-36.953232 70.477631 -38.565062 63.289069 
	-55.020433 69.457924 -48.506839 82.580481 -38.599348 64.109216 -36.953232 70.477631 
	-15.966853 -101.98256 -0.12137791 -11.308152 
	-48.414604 77.022985 -54.958877 72.446922 -36.838261 65.747834 -38.565062 63.289069 
	-0.12137791 -11.308152 -15.967475 -101.29032 
2.4e+009 -14.254031 -104.52587 -0.19884482 -13.714223 -26.882136 64.246166 -27.647352 60.243674 
	-54.624747 68.609019 -48.030497 76.465462 
	-0.19884482 -13.714223 -14.245629 -104.90672 -27.753119 63.271383 -26.886906 64.157781 
	-48.129385 82.268165 -54.560103 71.712054 
	-26.882136 64.246166 -27.753119 63.271383 -14.128211 -105.05527 -0.21036177 -13.811815 
	-38.260044 63.108839 -36.494661 64.803509 
	-27.647352 60.243674 -26.886906 64.157781 -0.21036177 -13.811815 -14.136167 -104.99509 
	-36.619315 69.746412 -38.22288 62.253966 
	-54.624747 68.609019 -48.129385 82.268165 -38.260044 63.108839 -36.619315 69.746412 
	-15.609704 -102.48268 -0.13153566 -11.789962 
	-48.030497 76.465462 -54.560103 71.712054 -36.494661 64.803509 -38.22288 62.253966 
	-0.13153566 -11.789962 -15.610397 -101.75977 
2.5e+009 -13.920044 -105.08908 -0.21438768 -14.265001 -26.565155 63.291249 -27.323939 59.127669 
	-54.244057 67.750239 -47.661509 75.90222 
	-0.21438768 -14.265001 -13.911087 -105.48668 -27.438894 62.282122 -26.570229 63.199586 
	-47.767305 81.950718 -54.17643 70.965948 
	-26.565155 63.291249 -27.438894 62.282122 -13.794292 -105.63294 -0.22661167 -14.365555 
	-37.936972 62.111505 -36.167091 63.862542 
	-27.323939 59.127669 -26.570229 63.199586 -0.22661167 -14.365555 -13.80274 -105.56997 
	-36.301816 69.019532 -37.896807 61.222002 
	-54.244057 67.750239 -47.767305 81.950718 -37.936972 62.111505 -36.301816 69.019532 
	-15.268138 -102.98155 -0.14207297 -12.270585 
	-47.661509 75.90222 -54.17643 70.965948 -36.167091 63.862542 -37.896807 61.222002 
	-0.14207297 -12.270585 -15.268904 -102.22792 
2.6e+009 -13.600659 -105.64958 -0.23043557 -14.813474 -26.263375 62.340936 -27.015472 58.01599 
	-53.877247 66.88166 -47.306505 75.333324 
	-0.23043557 -14.813474 -13.591134 -106.06403 -27.139999 61.297285 -26.268765 62.246046 
	-47.419465 81.628257 -53.806757 70.208718 
	-26.263375 62.340936 -27.139999 61.297285 -13.474971 -106.20785 -0.24338055 -14.916881 
	-37.628933 61.11731 -35.854354 62.92504 
	-27.015472 58.01599 -26.268765 62.246046 -0.24338055 -14.916881 -13.483922 -106.14205 
	-35.999539 68.297145 -37.585646 60.193277 
	-53.877247 66.88166 -47.419465 81.628257 -37.628933 61.11731 -35.999539 68.297145 
	-14.940964 -103.47915 -0.15298545 -12.74998 
	-47.306505 75.333324 -53.806757 70.208718 -35.854354 62.92504 -37.585646 60.193277 
	-0.15298545 -12.74998 -14.941807 -102.69472 
2.7e+009 -13.294815 -106.20731 -0.24697774 -15.359584 -25.975726 61.395357 -26.720883 56.908754 
	-53.523331 66.003366 -46.964481 74.75885 
	-0.24697774 -15.359584 -13.284707 -106.6387 -26.855366 60.316993 -25.981444 61.297296 
	-47.084863 81.30091 -53.450109 69.440487 
	-25.975726 61.395357 -26.855366 60.316993 -13.169185 -106.77992 -0.26065715 -15.465732 
	-37.334863 60.126334 -35.555384 61.991099 
	-26.720883 56.908754 -25.981444 61.297296 -0.26065715 -15.465732 -13.17865 -106.71127 
	-35.71142 67.57939 -37.28833 59.167872 
	-53.523331 66.003366 -47.084863 81.30091 -37.334863 60.126334 -35.71142 67.57939 
	-14.627129 -103.97544 -0.16426857 -13.22811 
	-46.964481 74.75885 -53.450109 69.440487 -35.555384 61.991099 -37.28833 59.167872 
	-0.16426857 -13.22811 -14.628051 -103.16014 
2.8e+009 -13.001562 -106.7622 -0.26400328 -15.903273 -25.701253 60.454637 -26.439215 55.806073 
	-53.181435 65.115428 -46.634545 74.178874 
	-0.26400328 -15.903273 -12.990857 -107.21065 -26.58404 59.341362 -25.707312 60.353462 
	-46.762613 80.968809 -53.105628 68.66137 
	-25.701253 60.454637 -26.58404 59.341362 -12.875986 -107.34911 -0.27843 -16.012051 
	-37.053813 59.138664 -35.269232 61.060817 
	-26.439215 55.806073 -25.707312 60.353462 -0.27843 -16.012051 -12.885975 -107.27757 
	-35.436506 66.866409 -37.003909 58.145873 
	-53.181435 65.115428 -46.762613 80.968809 -37.053813 59.138664 -35.436506 66.866409 
	-14.325691 -104.47038 -0.17591772 -13.704936 
	-46.634545 74.178874 -53.105628 68.66137 -35.269232 61.060817 -37.003909 58.145873 
	-0.17591772 -13.704936 -14.326695 -103.62415 
2.9e+009 -12.720051 -107.31419 -0.28150109 -16.444487 -25.4391 59.518897 -26.169613 54.708058 
	-52.850782 64.217956 -46.315906 73.593494 
	-0.28150109 -16.444487 -12.708735 -107.77981 -26.325166 58.370507 -25.445512 59.414668 
	-46.451923 80.632111 -52.772549 67.871523 
	-25.4391 59.518897 -26.325166 58.370507 -12.594523 -107.91534 -0.29668751 -16.555783 
	-36.78493 58.15438 -34.995047 60.134289 
	-26.169613 54.708058 -25.445512 59.414668 -0.29668751 -16.555783 -12.605045 -107.84088 
	-35.173948 66.158344 -36.73153 57.127366 
	-52.850782 64.217956 -46.451923 80.632111 -36.78493 58.15438 -35.173948 66.158344 
	-14.035807 -104.96395 -0.18792813 -14.180421 
	-46.315906 73.593494 -52.772549 67.871523 -34.995047 60.134289 -36.73153 57.127366 
	-0.18792813 -14.180421 -14.036898 -104.08669 
3e+009 -12.449516 -107.86324 -0.29945998 -16.983176 -25.188494 58.588252 -25.911305 53.614811 
	-52.530677 63.311069 -46.007854 73.002818 
	-0.29945998 -16.983176 -12.437577 -108.34613 -26.077971 57.404533 -25.195274 58.481033 
	-46.152087 80.290982 -52.45019 67.071115 
	-25.188494 58.588252 -26.077971 57.404533 -12.32403 -108.47858 -0.31541795 -17.096876 
	-36.527449 57.173554 -34.73206 59.2116 
	-25.911305 53.614811 -25.195274 58.481033 -0.31541795 -17.096876 -12.335096 -108.40115 
	-34.922978 65.455326 -36.470427 56.112421 
	-52.530677 63.311069 -46.152087 80.290982 -36.527449 57.173554 -34.922978 65.455326 
	-13.756722 -105.45611 -0.20029495 -14.654528 
	-46.007854 73.002818 -52.45019 67.071115 -34.73206 59.2116 -36.470427 56.112421 
	-0.20029495 -14.654528 -13.757901 -104.54775 
3.1e+009 -12.189268 -108.40929 -0.31786862 -17.519292 -24.948738 57.662813 -25.663591 52.526432 
	-52.220496 62.394904 -45.70975 72.406967 
	-0.31786862 -17.519292 -12.176691 -108.90957 -25.841758 56.443545 -24.9559 57.55267 
	-45.862468 79.945603 -52.137937 66.260328 
	-24.948738 57.662813 -25.841758 56.443545 -12.063818 -109.03875 -0.33460946 -17.635282 
	-36.280676 56.196259 -34.47958 58.292835 
	-25.663591 52.526432 -24.9559 57.55267 -0.33460946 -17.635282 -12.075436 -108.95833 
	-34.682903 64.757486 -36.219904 55.101113 
	-52.220496 62.394904 -45.862468 79.945603 -36.280676 56.196259 -34.682903 64.757486 
	-13.487752 -105.94682 -0.21301321 -15.127222 
	-45.70975 72.406967 -52.137937 66.260328 -34.47958 58.292835 -36.219904 55.101113 
	-0.21301321 -15.127222 -13.489022 -105.00728 
3.2e+009 -11.938678 -108.95228 -0.33671558 -18.052789 -24.719198 56.742687 -25.425838 51.443014 
	-51.919678 61.469609 -45.421022 71.806072 
	-0.33671558 -18.052789 -11.925451 -109.47007 -25.615895 55.487639 -24.726756 56.62969 
	-45.582495 79.59617 -51.835239 65.439366 
	-24.719198 56.742687 -25.615895 55.487639 -11.813258 -109.59582 -0.35425013 -18.170954 
	-36.043983 55.222562 -34.236978 57.378079 
	-25.425838 51.443014 -24.726756 56.62969 -0.35425013 -18.170954 -11.825437 -109.51237 
	-34.453095 64.064955 -35.979334 54.093511 
	-51.919678 61.469609 -45.582495 79.59617 -36.043983 55.222562 -34.453095 64.064955 
	-13.228278 -106.43606 -0.22607785 -15.598469 
	-45.421022 71.806072 -51.835239 65.439366 -34.236978 57.378079 -35.979334 54.093511 
	-0.22607785 -15.598469 -13.229642 -105.46525 
3.3e+009 -11.697177 -109.49218 -0.35598938 -18.583624 -24.499296 55.827974 -25.197468 50.364647 
	-51.627712 60.535352 -45.141149 71.200277 
	-0.35598938 -18.583624 -11.683289 -110.02759 -25.399805 54.53691 -24.507266 55.712198 
	-45.311649 79.242889 -51.541597 64.608447 
	-24.499296 55.827974 -25.399805 54.53691 -11.571781 -110.14973 -0.37432793 -18.703848 
	-35.816798 54.252527 -34.003681 56.467407 
	-25.197468 50.364647 -24.507266 55.712198 -0.37432793 -18.703848 -11.58453 -110.06322 
	-34.232979 63.377857 -35.748141 53.08968 
	-51.627712 60.535352 -45.311649 79.242889 -35.816798 54.252527 -34.232979 63.377857 
	-12.977738 -106.92379 -0.23948371 -16.068235 
	-45.141149 71.200277 -51.541597 64.608447 -34.003681 56.467407 -35.748141 53.08968 
	-0.23948371 -16.068235 -12.979199 -105.92162 
3.4e+009 -11.464246 -110.02893 -0.37567844 -19.111756 -24.288506 54.918772 -24.977953 49.291416 
	-51.344138 59.592314 -44.869661 70.589736 
	-0.37567844 -19.111756 -11.449683 -110.58208 -25.192959 53.591446 -24.296902 54.800294 
	-45.04946 78.88598 -51.25656 63.767802 
	-24.288506 54.918772 -25.192959 53.591446 -11.338866 -110.70045 -0.39483081 -19.233925 
	-35.598598 53.286216 -33.779167 55.560895 
	-24.977953 49.291416 -24.296902 54.800294 -0.39483081 -19.233925 -11.352193 -110.61084 
	-34.022036 62.696315 -35.525804 52.089683 
	-51.344138 59.592314 -45.04946 78.88598 -35.598598 53.286216 -34.022036 62.696315 
	-12.73562 -107.40998 -0.25322553 -16.536488 
	-44.869661 70.589736 -51.25656 63.767802 -33.779167 55.560895 -35.525804 52.089683 
	-0.25322553 -16.536488 -12.73718 -106.37637 