! AWR Design Environment (9226) Fri Apr 12 11:08:26 2019
! Document = 'BW_G_2'
! nPorts: 4, nXvals: 319

# GHz S DB R 50
!Freq DBS11 AngS11 DBS12 AngS12 DBS13 AngS13 DBS14 AngS14 
!	DBS21 AngS21 DBS22 AngS22 DBS23 AngS23 DBS24 AngS24 
!	DBS31 AngS31 DBS32 AngS32 DBS33 AngS33 DBS34 AngS34 
!	DBS41 AngS41 DBS42 AngS42 DBS43 AngS43 DBS44 AngS44 
0.1 -51.073197 81.733185 -0.0034480382 -0.18175123 -87.757493 89.682836 -89.05819 -90.365889 
	-0.0034480382 -0.18175123 -51.073197 81.733046 -89.05819 -90.365889 -87.757518 89.6807 
	-87.757493 89.682836 -89.05819 -90.365889 -51.073197 81.733185 -0.0034480382 -0.18175123 
	-89.05819 -90.365889 -87.757518 89.6807 -0.0034480382 -0.18175123 -51.073197 81.733046 
0.11 -50.265459 82.282202 -0.0035264969 -0.19975909 -86.929788 89.65143 -88.230505 -90.402117 
	-0.0035264969 -0.19975909 -50.265458 82.282049 -88.230505 -90.402117 -86.929813 89.649083 
	-86.929788 89.65143 -88.230505 -90.402117 -50.265459 82.282202 -0.0035264969 -0.19975909 
	-88.230505 -90.402117 -86.929813 89.649083 -0.0035264969 -0.19975909 -50.265458 82.282049 
0.12 -49.527445 82.730281 -0.0036091736 -0.21772823 -86.174173 89.620097 -87.474911 -90.438261 
	-0.0036091736 -0.21772823 -49.527445 82.730114 -87.474911 -90.438261 -86.174199 89.617538 
	-86.174173 89.620097 -87.474911 -90.438261 -49.527445 82.730281 -0.0036091736 -0.21772823 
	-87.474911 -90.438261 -86.174199 89.617538 -0.0036091736 -0.21772823 -49.527445 82.730114 
0.13 -48.848335 83.101519 -0.0036954552 -0.23565842 -85.479095 89.588836 -86.779854 -90.474321 
	-0.0036954552 -0.23565842 -48.848334 83.101339 -86.779854 -90.474321 -85.479121 89.586065 
	-85.479095 89.588836 -86.779854 -90.474321 -48.848335 83.101519 -0.0036954552 -0.23565842 
	-86.779854 -90.474321 -85.479121 89.586065 -0.0036954552 -0.23565842 -48.848334 83.101339 
0.14 -48.219606 83.413191 -0.0037847603 -0.25354991 -84.835571 89.557648 -86.136353 -90.510297 
	-0.0037847603 -0.25354991 -48.219606 83.412996 -86.136353 -90.510297 -84.835598 89.554665 
	-84.835571 89.557648 -86.136353 -90.510297 -48.219606 83.413191 -0.0037847603 -0.25354991 
	-86.136353 -90.510297 -84.835598 89.554665 -0.0037847603 -0.25354991 -48.219606 83.412996 
0.15 -47.634435 83.677964 -0.0038765469 -0.27140331 -84.236481 89.52653 -85.537285 -90.546191 
	-0.0038765469 -0.27140331 -47.634435 83.677755 -85.537285 -90.546191 -84.236509 89.523336 
	-84.236481 89.52653 -85.537285 -90.546191 -47.634435 83.677964 -0.0038765469 -0.27140331 
	-85.537285 -90.546191 -84.236509 89.523336 -0.0038765469 -0.27140331 -47.634435 83.677755 
0.16 -47.087272 83.905316 -0.0039703172 -0.2892196 -83.676086 89.495481 -84.976912 -90.582005 
	-0.0039703172 -0.2892196 -47.087271 83.905093 -84.976912 -90.582005 -83.676113 89.492076 
	-83.676086 89.495481 -84.976912 -90.582005 -47.087272 83.905316 -0.0039703172 -0.2892196 
	-84.976912 -90.582005 -83.676113 89.492076 -0.0039703172 -0.2892196 -47.087271 83.905093 
0.17 -46.573547 84.102453 -0.0040656206 -0.307 -83.149689 89.464499 -84.450538 -90.617742 
	-0.0040656206 -0.307 -46.573546 84.102216 -84.450537 -90.617742 -83.149717 89.460883 
	-83.149689 89.464499 -84.450538 -90.617742 -46.573547 84.102453 -0.0040656206 -0.307 
	-84.450538 -90.617742 -83.149717 89.460883 -0.0040656206 -0.307 -46.573546 84.102216 
0.18 -46.089452 84.274932 -0.0041620551 -0.32474595 -82.653401 89.433581 -83.954273 -90.653404 
	-0.0041620551 -0.32474595 -46.089452 84.274681 -83.954273 -90.653404 -82.653429 89.429755 
	-82.653401 89.433581 -83.954273 -90.653404 -46.089452 84.274932 -0.0041620551 -0.32474595 
	-83.954273 -90.653404 -82.653429 89.429755 -0.0041620551 -0.32474595 -46.089452 84.274681 
0.19 -45.631784 84.427091 -0.0042592665 -0.34245905 -82.183965 89.402724 -83.484859 -90.688995 
	-0.0042592665 -0.34245905 -45.631784 84.426826 -83.484859 -90.688995 -82.183994 89.398688 
	-82.183965 89.402724 -83.484859 -90.688995 -45.631784 84.427091 -0.0042592665 -0.34245905 
	-83.484859 -90.688995 -82.183994 89.398688 -0.0042592665 -0.34245905 -45.631784 84.426826 
0.2 -45.197822 84.56235 -0.0043569478 -0.36014097 -81.738624 89.371925 -83.039541 -90.724519 
	-0.0043569478 -0.36014097 -45.197822 84.562071 -83.039541 -90.724519 -81.738653 89.367679 
	-81.738624 89.371925 -83.039541 -90.724519 -45.197822 84.56235 -0.0043569478 -0.36014097 
	-83.039541 -90.724519 -81.738653 89.367679 -0.0043569478 -0.36014097 -45.197822 84.562071 
0.21 -44.785238 84.683431 -0.004454836 -0.37779347 -81.315026 89.341181 -82.615964 -90.75998 
	-0.004454836 -0.37779347 -44.785237 84.683139 -82.615964 -90.75998 -81.315055 89.336726 
	-81.315026 89.341181 -82.615964 -90.75998 -44.785238 84.683431 -0.0044548361 -0.37779347 
	-82.615964 -90.75998 -81.315055 89.336726 -0.0044548361 -0.37779347 -44.785237 84.683139 
0.22 -44.392024 84.792522 -0.00455271 -0.39541832 -80.911146 89.310488 -82.212106 -90.79538 
	-0.00455271 -0.39541832 -44.392023 84.792215 -82.212106 -90.79538 -80.911176 89.305823 
	-80.911146 89.310488 -82.212106 -90.79538 -44.392024 84.792522 -0.00455271 -0.39541832 
	-82.212106 -90.79538 -80.911176 89.305823 -0.00455271 -0.39541832 -44.392023 84.792215 
0.23 -44.016437 84.891388 -0.0046503864 -0.41301727 -80.525231 89.279844 -81.826212 -90.830725 
	-0.0046503864 -0.41301727 -44.016436 84.891068 -81.826212 -90.830725 -80.525261 89.27497 
	-80.525231 89.279844 -81.826212 -90.830725 -44.016437 84.891388 -0.0046503864 -0.41301727 
	-81.826212 -90.830725 -80.525261 89.27497 -0.0046503864 -0.41301727 -44.016436 84.891068 
0.24 -43.656957 84.981469 -0.0047477165 -0.43059204 -80.15575 89.249245 -81.456752 -90.866018 
	-0.0047477165 -0.43059204 -43.656956 84.981134 -81.456752 -90.866018 -80.15578 89.244161 
	-80.15575 89.249245 -81.456752 -90.866018 -43.656957 84.981469 -0.0047477165 -0.43059204 
	-81.456752 -90.866018 -80.15578 89.244161 -0.0047477165 -0.43059204 -43.656956 84.981134 
0.25 -43.312249 85.063943 -0.0048445824 -0.44814431 -79.801361 89.218687 -81.102384 -90.901262 
	-0.0048445824 -0.44814431 -43.312248 85.063595 -81.102384 -90.901262 -79.801392 89.213395 
	-79.801361 89.218687 -81.102384 -90.901262 -43.312249 85.063943 -0.0048445824 -0.44814431 
	-81.102384 -90.901262 -79.801392 89.213395 -0.0048445824 -0.44814431 -43.312248 85.063595 
0.26 -42.981135 85.139783 -0.0049408936 -0.46567566 -79.460881 89.188169 -80.761923 -90.936461 
	-0.0049408936 -0.46567566 -42.981134 85.139421 -80.761923 -90.936461 -79.460912 89.182667 
	-79.460881 89.188169 -80.761923 -90.936461 -42.981135 85.139783 -0.0049408936 -0.46567566 
	-80.761923 -90.936461 -79.460912 89.182667 -0.0049408936 -0.46567566 -42.981134 85.139421 
0.27 -42.662572 85.209796 -0.0050365834 -0.48318763 -79.133257 89.157686 -80.434319 -90.971618 
	-0.0050365834 -0.48318763 -42.662571 85.209419 -80.434319 -90.971618 -79.133289 89.151976 
	-79.133257 89.157686 -80.434319 -90.971618 -42.662572 85.209796 -0.0050365834 -0.48318763 
	-80.434319 -90.971618 -79.133289 89.151976 -0.0050365834 -0.48318763 -42.662571 85.209419 
0.28 -42.355631 85.274653 -0.0051316056 -0.50068163 -78.817556 89.127237 -80.118637 -91.006736 
	-0.0051316056 -0.50068163 -42.35563 85.274263 -80.118637 -91.006736 -78.817588 89.121319 
	-78.817556 89.127237 -80.118637 -91.006736 -42.355631 85.274653 -0.0051316056 -0.50068163 
	-80.118637 -91.006736 -78.817588 89.121319 -0.0051316056 -0.50068163 -42.35563 85.274263 
0.29 -42.059482 85.334921 -0.0052259316 -0.51815903 -78.51294 89.096819 -79.814039 -91.041818 
	-0.0052259316 -0.51815903 -42.059482 85.334516 -79.814039 -91.041818 -78.512972 89.090692 
	-78.51294 89.096819 -79.814039 -91.041818 -42.059482 85.334921 -0.0052259316 -0.51815903 
	-79.814039 -91.041818 -78.512972 89.090692 -0.0052259316 -0.51815903 -42.059482 85.334516 
0.3 -41.773381 85.391076 -0.0053195477 -0.53562106 -78.218657 89.06643 -79.519774 -91.076867 
	-0.0053195477 -0.53562106 -41.77338 85.390657 -79.519774 -91.076867 -78.218689 89.060094 
	-78.218657 89.06643 -79.519774 -91.076867 -41.773381 85.391076 -0.0053195477 -0.53562106 
	-79.519774 -91.076867 -78.218689 89.060094 -0.0053195477 -0.53562106 -41.77338 85.390657 
0.31 -41.496657 85.443523 -0.0054124526 -0.5530689 -77.934029 89.036067 -79.235163 -91.111886 
	-0.0054124526 -0.5530689 -41.496656 85.44309 -79.235163 -91.111886 -77.934061 89.029523 
	-77.934029 89.036067 -79.235163 -91.111886 -41.496657 85.443523 -0.0054124526 -0.5530689 
	-79.235163 -91.111886 -77.934061 89.029523 -0.0054124526 -0.5530689 -41.496656 85.44309 
0.32 -41.228706 85.492607 -0.0055046552 -0.57050361 -77.658444 89.005728 -78.959594 -91.146876 
	-0.0055046552 -0.57050361 -41.228705 85.49216 -78.959594 -91.146876 -77.658476 88.998976 
	-77.658444 89.005728 -78.959594 -91.146876 -41.228706 85.492607 -0.0055046552 -0.57050361 
	-78.959594 -91.146876 -77.658476 88.998976 -0.0055046552 -0.57050361 -41.228705 85.49216 
0.33 -40.968978 85.538627 -0.0055961728 -0.58792619 -77.391344 88.975412 -78.69251 -91.18184 
	-0.0055961728 -0.58792619 -40.968977 85.538166 -78.69251 -91.18184 -77.391376 88.968452 
	-77.391344 88.975412 -78.69251 -91.18184 -40.968978 85.538627 -0.0055961728 -0.58792619 
	-78.69251 -91.18184 -77.391376 88.968452 -0.0055961728 -0.58792619 -40.968977 85.538166 
0.34 -40.716976 85.58184 -0.0056870291 -0.60533754 -77.132222 88.945117 -78.433403 -91.21678 
	-0.0056870291 -0.60533754 -40.716976 85.581365 -78.433403 -91.21678 -77.132254 88.937949 
	-77.132222 88.945117 -78.433403 -91.21678 -40.716976 85.58184 -0.0056870291 -0.60533754 
	-78.433403 -91.21678 -77.132254 88.937949 -0.0056870291 -0.60533754 -40.716976 85.581365 
0.35 -40.472246 85.622468 -0.005777253 -0.6227385 -76.880617 88.914841 -78.181813 -91.251698 
	-0.005777253 -0.6227385 -40.472246 85.621979 -78.181813 -91.251698 -76.880649 88.907466 
	-76.880617 88.914841 -78.181813 -91.251698 -40.472246 85.622468 -0.005777253 -0.6227385 
	-78.181813 -91.251698 -76.880649 88.907466 -0.005777253 -0.6227385 -40.472246 85.621979 
0.36 -40.234373 85.660708 -0.0058668774 -0.64012981 -76.636104 88.884584 -77.937314 -91.286595 
	-0.0058668774 -0.64012981 -40.234373 85.660205 -77.937314 -91.286595 -76.636136 88.877 
	-76.636104 88.884584 -77.937314 -91.286595 -40.234373 85.660708 -0.0058668774 -0.64012981 
	-77.937314 -91.286595 -76.636136 88.877 -0.0058668774 -0.64012981 -40.234373 85.660205 
0.37 -40.002977 85.696731 -0.0059559381 -0.65751217 -76.398295 88.854343 -77.699519 -91.321472 
	-0.0059559381 -0.65751217 -40.002976 85.696215 -77.699519 -91.321472 -76.398327 88.846552 
	-76.398295 88.854343 -77.699519 -91.321472 -40.002977 85.696731 -0.0059559381 -0.65751217 
	-77.699519 -91.321472 -76.398327 88.846552 -0.0059559381 -0.65751217 -40.002976 85.696215 
0.38 -39.777709 85.730691 -0.0060444727 -0.67488622 -76.166833 88.824117 -77.46807 -91.356331 
	-0.0060444727 -0.67488622 -39.777708 85.73016 -77.46807 -91.356331 -76.166865 88.816119 
	-76.166833 88.824117 -77.46807 -91.356331 -39.777709 85.730691 -0.0060444727 -0.67488622 
	-77.46807 -91.356331 -76.166865 88.816119 -0.0060444727 -0.67488622 -39.777708 85.73016 
0.39 -39.558248 85.762723 -0.0061325201 -0.69225251 -75.941387 88.793906 -77.242637 -91.391174 
	-0.0061325201 -0.69225251 -39.558247 85.762178 -77.242637 -91.391174 -75.941419 88.7857 
	-75.941387 88.793906 -77.242637 -91.391174 -39.558248 85.762723 -0.0061325201 -0.69225251 
	-77.242637 -91.391174 -75.941419 88.7857 -0.0061325201 -0.69225251 -39.558247 85.762178 
0.4 -39.344297 85.792949 -0.0062201196 -0.70961156 -75.721652 88.763709 -77.022915 -91.426001 
	-0.0062201196 -0.70961156 -39.344297 85.79239 -77.022915 -91.426001 -75.721685 88.755295 
	-75.721652 88.763709 -77.022915 -91.426001 -39.344297 85.792949 -0.0062201196 -0.70961156 
	-77.022915 -91.426001 -75.721685 88.755295 -0.0062201196 -0.70961156 -39.344297 85.79239 
0.41 -39.135583 85.821478 -0.0063073109 -0.72696385 -75.507348 88.733524 -76.808623 -91.460814 
	-0.0063073109 -0.72696385 -39.135583 85.820904 -76.808623 -91.460814 -75.507381 88.724903 
	-75.507348 88.733524 -76.808623 -91.460814 -39.135583 85.821478 -0.0063073109 -0.72696385 
	-76.808623 -91.460814 -75.507381 88.724903 -0.0063073109 -0.72696385 -39.135583 85.820904 
0.42 -38.931853 85.848408 -0.0063941332 -0.74430979 -75.298212 88.703351 -76.599498 -91.495613 
	-0.0063941332 -0.74430979 -38.931852 85.847821 -76.599498 -91.495613 -75.298244 88.694522 
	-75.298212 88.703351 -76.599498 -91.495613 -38.931853 85.848408 -0.0063941332 -0.74430979 
	-76.599498 -91.495613 -75.298244 88.694522 -0.0063941332 -0.74430979 -38.931852 85.847821 
0.43 -38.73287 85.87383 -0.006480625 -0.76164977 -75.094001 88.673189 -76.395298 -91.530399 
	-0.006480625 -0.76164977 -38.732869 85.873229 -76.395298 -91.530399 -75.094033 88.664153 
	-75.094001 88.673189 -76.395298 -91.530399 -38.73287 85.87383 -0.006480625 -0.76164977 
	-76.395298 -91.530399 -75.094033 88.664153 -0.006480625 -0.76164977 -38.732869 85.873229 
0.44 -38.538415 85.897826 -0.0065668241 -0.77898413 -74.894489 88.643038 -76.195796 -91.565173 
	-0.0065668241 -0.77898413 -38.538414 85.897211 -76.195796 -91.565173 -74.894521 88.633794 
	-74.894489 88.643038 -76.195796 -91.565173 -38.538415 85.897826 -0.0065668241 -0.77898413 
	-76.195796 -91.565173 -74.894521 88.633794 -0.0065668241 -0.77898413 -38.538414 85.897211 
0.45 -38.348286 85.920471 -0.0066527669 -0.79631319 -74.699464 88.612897 -76.000781 -91.599935 
	-0.0066527669 -0.79631319 -38.348285 85.919842 -76.000781 -91.599935 -74.699496 88.603445 
	-74.699464 88.612897 -76.000781 -91.599935 -38.348286 85.920471 -0.0066527669 -0.79631319 
	-76.000781 -91.599935 -74.699496 88.603445 -0.0066527669 -0.79631319 -38.348285 85.919842 
0.46 -38.162291 85.941835 -0.0067384887 -0.81363722 -74.50873 88.582765 -75.810056 -91.634687 
	-0.0067384887 -0.81363722 -38.16229 85.941192 -75.810056 -91.634687 -74.508761 88.573106 
	-74.50873 88.582765 -75.810056 -91.634687 -38.162291 85.941835 -0.0067384887 -0.81363722 
	-75.810056 -91.634687 -74.508761 88.573106 -0.0067384887 -0.81363722 -38.16229 85.941192 
0.47 -37.980253 85.961981 -0.0068240236 -0.8309565 -74.322101 88.552641 -75.623437 -91.669428 
	-0.0068240236 -0.8309565 -37.980252 85.961324 -75.623437 -91.669428 -74.322132 88.542776 
	-74.322101 88.552641 -75.623437 -91.669428 -37.980253 85.961981 -0.0068240237 -0.8309565 
	-75.623437 -91.669428 -74.322132 88.542776 -0.0068240237 -0.8309565 -37.980252 85.961324 
0.48 -37.80194 85.980351 -0.006910658 -0.84827637 -74.139407 88.522517 -75.440752 -91.704171 
	-0.006910658 -0.84827637 -37.801939 85.979679 -75.440752 -91.704171 -74.139438 88.512444 
	-74.139407 88.522517 -75.440752 -91.704171 -37.80194 85.980351 -0.006910658 -0.84827637 
	-75.440752 -91.704171 -74.139438 88.512444 -0.006910658 -0.84827637 -37.801939 85.979679 
0.49 -37.627338 85.998343 -0.0069957177 -0.86558606 -73.960482 88.492412 -75.261835 -91.738892 
	-0.0069957177 -0.86558606 -37.627337 85.997658 -75.261835 -91.738892 -73.960513 88.482132 
	-73.960482 88.492412 -75.261835 -91.738892 -37.627338 85.998343 -0.0069957177 -0.86558606 
	-75.261835 -91.738892 -73.960513 88.482132 -0.0069957177 -0.86558606 -37.627337 85.997658 
0.5 -37.456222 86.015264 -0.0070807178 -0.88289172 -73.785175 88.462315 -75.086536 -91.773604 
	-0.0070807178 -0.88289172 -37.456221 86.014564 -75.086536 -91.773604 -73.785205 88.451827 
	-73.785175 88.462315 -75.086536 -91.773604 -37.456222 86.015264 -0.0070807178 -0.88289172 
	-75.086536 -91.773604 -73.785205 88.451827 -0.0070807178 -0.88289172 -37.456221 86.014564 
0.505 -37.371928 86.023339 -0.0071232023 -0.89154309 -73.698833 88.447269 -75.000198 -91.790957 
	-0.0071232023 -0.89154309 -37.371927 86.022632 -75.000198 -91.790957 -73.698864 88.436677 
	-73.698833 88.447269 -75.000198 -91.790957 -37.371928 86.023339 -0.0071232023 -0.89154309 
	-75.000198 -91.790957 -73.698864 88.436677 -0.0071232023 -0.89154309 -37.371927 86.022632 
0.51 -37.288455 86.031165 -0.00716568 -0.90019352 -73.613343 88.432224 -74.914712 -91.808308 
	-0.00716568 -0.90019352 -37.288454 86.030451 -74.914712 -91.808308 -73.613373 88.421529 
	-73.613343 88.432224 -74.914712 -91.808308 -37.288455 86.031165 -0.00716568 -0.90019352 
	-74.914712 -91.808308 -73.613373 88.421529 -0.00716568 -0.90019352 -37.288454 86.030451 
0.515 -37.205786 86.038748 -0.0072081537 -0.908843 -73.528688 88.417182 -74.830061 -91.825657 
	-0.0072081537 -0.908843 -37.205786 86.038027 -74.830061 -91.825657 -73.528718 88.406383 
	-73.528688 88.417182 -74.830061 -91.825657 -37.205786 86.038748 -0.0072081537 -0.908843 
	-74.830061 -91.825657 -73.528718 88.406383 -0.0072081537 -0.908843 -37.205786 86.038027 
0.52 -37.123908 86.046094 -0.0072506261 -0.91749157 -73.444852 88.402141 -74.746228 -91.843004 
	-0.0072506261 -0.91749157 -37.123907 86.045366 -74.746228 -91.843004 -73.444882 88.391239 
	-73.444852 88.402141 -74.746228 -91.843004 -37.123908 86.046094 -0.0072506261 -0.91749157 
	-74.746228 -91.843004 -73.444882 88.391239 -0.0072506261 -0.91749157 -37.123907 86.045366 
0.525 -37.042803 86.053208 -0.0072930997 -0.92613924 -73.361819 88.387102 -74.663198 -91.860349 
	-0.0072930997 -0.92613924 -37.042802 86.052473 -74.663198 -91.860349 -73.361848 88.376096 
	-73.361819 88.387102 -74.663198 -91.860349 -37.042803 86.053208 -0.0072930997 -0.92613924 
	-74.663198 -91.860349 -73.361848 88.376096 -0.0072930997 -0.92613924 -37.042802 86.052473 
0.53 -36.962458 86.060096 -0.0073355772 -0.93478603 -73.279573 88.372064 -74.580957 -91.877692 
	-0.0073355772 -0.93478603 -36.962457 86.059354 -74.580957 -91.877692 -73.279603 88.360955 
	-73.279573 88.372064 -74.580957 -91.877692 -36.962458 86.060096 -0.0073355772 -0.93478603 
	-74.580957 -91.877692 -73.279603 88.360955 -0.0073355772 -0.93478603 -36.962457 86.059354 
0.535 -36.882859 86.066762 -0.0073780612 -0.94343194 -73.198101 88.357029 -74.499488 -91.895033 
	-0.0073780612 -0.94343194 -36.882858 86.066014 -74.499488 -91.895033 -73.198131 88.345816 
	-73.198101 88.357029 -74.499488 -91.895033 -36.882859 86.066762 -0.0073780612 -0.94343194 
	-74.499488 -91.895033 -73.198131 88.345816 -0.0073780612 -0.94343194 -36.882858 86.066014 
0.54 -36.803992 86.073213 -0.0074205541 -0.952077 -73.117388 88.341994 -74.418778 -91.912373 
	-0.0074205541 -0.952077 -36.803991 86.072457 -74.418778 -91.912373 -73.117418 88.330678 
	-73.117388 88.341994 -74.418778 -91.912373 -36.803992 86.073213 -0.0074205541 -0.952077 
	-74.418778 -91.912373 -73.117418 88.330678 -0.0074205541 -0.952077 -36.803991 86.072457 
0.545 -36.725843 86.079451 -0.0074630584 -0.96072121 -73.03742 88.326962 -74.338813 -91.92971 
	-0.0074630584 -0.96072121 -36.725842 86.078688 -74.338813 -91.92971 -73.037449 88.315542 
	-73.03742 88.326962 -74.338813 -91.92971 -36.725843 86.079451 -0.0074630584 -0.96072121 
	-74.338813 -91.92971 -73.037449 88.315542 -0.0074630584 -0.96072121 -36.725842 86.078688 
0.55 -36.6484 86.085483 -0.0075055766 -0.96936459 -72.958182 88.311931 -74.259578 -91.947046 
	-0.0075055766 -0.96936459 -36.648399 86.084713 -74.259578 -91.947046 -72.958211 88.300407 
	-72.958182 88.311931 -74.259578 -91.947046 -36.6484 86.085483 -0.0075055766 -0.96936459 
	-74.259578 -91.947046 -72.958211 88.300407 -0.0075055766 -0.96936459 -36.648399 86.084713 
0.555 -36.57165 86.091313 -0.007548111 -0.97800716 -72.879663 88.296901 -74.181062 -91.96438 
	-0.007548111 -0.97800716 -36.571649 86.090536 -74.181062 -91.96438 -72.879692 88.285274 
	-72.879663 88.296901 -74.181062 -91.96438 -36.57165 86.091313 -0.007548111 -0.97800716 
	-74.181062 -91.96438 -72.879692 88.285274 -0.007548111 -0.97800716 -36.571649 86.090536 
0.56 -36.49558 86.096944 -0.007590664 -0.98664891 -72.801849 88.281873 -74.103251 -91.981712 
	-0.007590664 -0.98664891 -36.495579 86.09616 -74.103251 -91.981712 -72.801878 88.270143 
	-72.801849 88.281873 -74.103251 -91.981712 -36.49558 86.096944 -0.007590664 -0.98664891 
	-74.103251 -91.981712 -72.801878 88.270143 -0.007590664 -0.98664891 -36.495579 86.09616 
0.565 -36.420178 86.102382 -0.0076332377 -0.99528987 -72.724727 88.266847 -74.026132 -91.999043 
	-0.0076332377 -0.99528987 -36.420177 86.101591 -74.026132 -91.999043 -72.724756 88.255013 
	-72.724727 88.266847 -74.026132 -91.999043 -36.420178 86.102382 -0.0076332377 -0.99528987 
	-74.026132 -91.999043 -72.724756 88.255013 -0.0076332377 -0.99528987 -36.420177 86.101591 
0.57 -36.345433 86.10763 -0.0076758345 -1.00393 -72.648286 88.251822 -73.949694 -92.016372 
	-0.0076758345 -1.00393 -36.345432 86.106832 -73.949694 -92.016372 -72.648314 88.239884 
	-72.648286 88.251822 -73.949694 -92.016372 -36.345433 86.10763 -0.0076758345 -1.00393 
	-73.949694 -92.016372 -72.648314 88.239884 -0.0076758345 -1.00393 -36.345432 86.106832 
0.575 -36.271334 86.112692 -0.0077184564 -1.0125694 -72.572513 88.236798 -73.873924 -92.033699 
	-0.0077184564 -1.0125694 -36.271333 86.111887 -73.873924 -92.033699 -72.572541 88.224757 
	-72.572513 88.236798 -73.873924 -92.033699 -36.271334 86.112692 -0.0077184564 -1.0125694 
	-73.873924 -92.033699 -72.572541 88.224757 -0.0077184564 -1.0125694 -36.271333 86.111887 
0.58 -36.197869 86.117572 -0.0077611057 -1.0212081 -72.497397 88.221776 -73.79881 -92.051025 
	-0.0077611057 -1.0212081 -36.197868 86.11676 -73.79881 -92.051025 -72.497425 88.209631 
	-72.497397 88.221776 -73.79881 -92.051025 -36.197869 86.117572 -0.0077611057 -1.0212081 
	-73.79881 -92.051025 -72.497425 88.209631 -0.0077611057 -1.0212081 -36.197868 86.11676 
0.585 -36.125027 86.122274 -0.0078037842 -1.029846 -72.422927 88.206755 -73.724343 -92.068349 
	-0.0078037842 -1.029846 -36.125026 86.121455 -73.724343 -92.068349 -72.422955 88.194507 
	-72.422927 88.206755 -73.724343 -92.068349 -36.125027 86.122274 -0.0078037842 -1.029846 
	-73.724343 -92.068349 -72.422955 88.194507 -0.0078037842 -1.029846 -36.125026 86.121455 
0.59 -36.052798 86.126802 -0.0078464942 -1.0384831 -72.349092 88.191736 -73.65051 -92.085671 
	-0.0078464942 -1.0384831 -36.052797 86.125976 -73.65051 -92.085671 -72.349119 88.179384 
	-72.349092 88.191736 -73.65051 -92.085671 -36.052798 86.126802 -0.0078464942 -1.0384831 
	-73.65051 -92.085671 -72.349119 88.179384 -0.0078464942 -1.0384831 -36.052797 86.125976 
0.595 -35.981173 86.131159 -0.0078892374 -1.0471195 -72.27588 88.176718 -73.5773 -92.102992 
	-0.0078892374 -1.0471195 -35.981172 86.130326 -73.5773 -92.102992 -72.275907 88.164263 
	-72.27588 88.176718 -73.5773 -92.102992 -35.981173 86.131159 -0.0078892374 -1.0471195 
	-73.5773 -92.102992 -72.275907 88.164263 -0.0078892374 -1.0471195 -35.981172 86.130326 
0.6 -35.91014 86.135349 -0.0079320158 -1.0557552 -72.203282 88.161701 -73.504705 -92.120311 
	-0.0079320158 -1.0557552 -35.910139 86.134509 -73.504705 -92.120311 -72.203309 88.149143 
	-72.203282 88.161701 -73.504705 -92.120311 -35.91014 86.135349 -0.0079320158 -1.0557552 
	-73.504705 -92.120311 -72.203309 88.149143 -0.0079320158 -1.0557552 -35.910139 86.134509 
0.605 -35.839689 86.139374 -0.0079748312 -1.0643901 -72.131287 88.146686 -73.432712 -92.137629 
	-0.0079748312 -1.0643901 -35.839688 86.138527 -73.432712 -92.137629 -72.131314 88.134024 
	-72.131287 88.146686 -73.432712 -92.137629 -35.839689 86.139374 -0.0079748312 -1.0643901 
	-73.432712 -92.137629 -72.131314 88.134024 -0.0079748312 -1.0643901 -35.839688 86.138527 
0.61 -35.769813 86.143239 -0.0080176855 -1.0730244 -72.059886 88.131672 -73.361313 -92.154945 
	-0.0080176855 -1.0730244 -35.769812 86.142384 -73.361313 -92.154945 -72.059913 88.118907 
	-72.059886 88.131672 -73.361313 -92.154945 -35.769813 86.143239 -0.0080176855 -1.0730244 
	-73.361313 -92.154945 -72.059913 88.118907 -0.0080176855 -1.0730244 -35.769812 86.142384 
0.615 -35.700501 86.146946 -0.0080605803 -1.0816579 -71.989068 88.11666 -73.290498 -92.17226 
	-0.0080605803 -1.0816579 -35.7005 86.146084 -73.290498 -92.17226 -71.989095 88.10379 
	-71.989068 88.11666 -73.290498 -92.17226 -35.700501 86.146946 -0.0080605803 -1.0816579 
	-73.290498 -92.17226 -71.989095 88.10379 -0.0080605803 -1.0816579 -35.7005 86.146084 
0.62 -35.631743 86.150498 -0.0081035174 -1.0902907 -71.918825 88.101648 -73.220256 -92.189573 
	-0.0081035174 -1.0902907 -35.631742 86.14963 -73.220256 -92.189573 -71.918851 88.088676 
	-71.918825 88.101648 -73.220256 -92.189573 -35.631743 86.150498 -0.0081035174 -1.0902907 
	-73.220256 -92.189573 -71.918851 88.088676 -0.0081035174 -1.0902907 -35.631742 86.14963 
0.625 -35.563532 86.153899 -0.0081464985 -1.0989229 -71.849147 88.086639 -73.15058 -92.206885 
	-0.0081464985 -1.0989229 -35.563531 86.153024 -73.15058 -92.206885 -71.849173 88.073562 
	-71.849147 88.086639 -73.15058 -92.206885 -35.563532 86.153899 -0.0081464985 -1.0989229 
	-73.15058 -92.206885 -71.849173 88.073562 -0.0081464985 -1.0989229 -35.563531 86.153024 
0.63 -35.495859 86.157151 -0.008189525 -1.1075544 -71.780025 88.07163 -73.08146 -92.224195 
	-0.008189525 -1.1075544 -35.495858 86.156269 -73.08146 -92.224195 -71.780051 88.05845 
	-71.780025 88.07163 -73.08146 -92.224195 -35.495859 86.157151 -0.008189525 -1.1075544 
	-73.08146 -92.224195 -71.780051 88.05845 -0.008189525 -1.1075544 -35.495858 86.156269 
0.635 -35.428715 86.160258 -0.0082325987 -1.1161852 -71.71145 88.056623 -73.012887 -92.241504 
	-0.0082325987 -1.1161852 -35.428714 86.159369 -73.012887 -92.241504 -71.711475 88.043339 
	-71.71145 88.056623 -73.012887 -92.241504 -35.428715 86.160258 -0.0082325987 -1.1161852 
	-73.012887 -92.241504 -71.711475 88.043339 -0.0082325987 -1.1161852 -35.428714 86.159369 
0.64 -35.362092 86.163222 -0.008275721 -1.1248153 -71.643414 88.041616 -72.944852 -92.258811 
	-0.008275721 -1.1248153 -35.362091 86.162326 -72.944852 -92.258811 -71.643439 88.02823 
	-71.643414 88.041616 -72.944852 -92.258811 -35.362092 86.163222 -0.008275721 -1.1248153 
	-72.944852 -92.258811 -71.643439 88.02823 -0.008275721 -1.1248153 -35.362091 86.162326 
0.645 -35.295983 86.166046 -0.0083188934 -1.1334447 -71.575908 88.026612 -72.877348 -92.276117 
	-0.0083188934 -1.1334447 -35.295982 86.165142 -72.877348 -92.276117 -71.575933 88.013121 
	-71.575908 88.026612 -72.877348 -92.276117 -35.295983 86.166046 -0.0083188934 -1.1334447 
	-72.877348 -92.276117 -71.575933 88.013121 -0.0083188934 -1.1334447 -35.295982 86.165142 
0.65 -35.230378 86.168732 -0.0083621173 -1.1420736 -71.508924 88.011608 -72.810366 -92.293422 
	-0.0083621173 -1.1420736 -35.230377 86.167821 -72.810366 -92.293422 -71.508949 87.998014 
	-71.508924 88.011608 -72.810366 -92.293422 -35.230378 86.168732 -0.0083621173 -1.1420736 
	-72.810366 -92.293422 -71.508949 87.998014 -0.0083621173 -1.1420736 -35.230377 86.167821 
0.655 -35.165271 86.171283 -0.0084053941 -1.1507017 -71.442455 87.996605 -72.743898 -92.310725 
	-0.0084053941 -1.1507017 -35.16527 86.170366 -72.743898 -92.310725 -71.442479 87.982908 
	-71.442455 87.996605 -72.743898 -92.310725 -35.165271 86.171283 -0.0084053941 -1.1507017 
	-72.743898 -92.310725 -71.442479 87.982908 -0.0084053941 -1.1507017 -35.16527 86.170366 
0.66 -35.100654 86.173702 -0.0084487252 -1.1593292 -71.376491 87.981604 -72.677936 -92.328026 
	-0.0084487252 -1.1593292 -35.100653 86.172778 -72.677936 -92.328026 -71.376516 87.967804 
	-71.376491 87.981604 -72.677936 -92.328026 -35.100654 86.173702 -0.0084487252 -1.1593292 
	-72.677936 -92.328026 -71.376516 87.967804 -0.0084487252 -1.1593292 -35.100653 86.172778 
0.665 -35.036519 86.175991 -0.0084921119 -1.1679561 -71.311027 87.966604 -72.612473 -92.345327 
	-0.0084921119 -1.1679561 -35.036518 86.175059 -72.612473 -92.345327 -71.311051 87.9527 
	-71.311027 87.966604 -72.612473 -92.345327 -35.036519 86.175991 -0.0084921119 -1.1679561 
	-72.612473 -92.345327 -71.311051 87.9527 -0.0084921119 -1.1679561 -35.036518 86.175059 
0.67 -34.97286 86.178152 -0.0085355555 -1.1765823 -71.246053 87.951606 -72.547501 -92.362626 
	-0.0085355555 -1.1765823 -34.972859 86.177214 -72.547501 -92.362626 -71.246077 87.937598 
	-71.246053 87.951606 -72.547501 -92.362626 -34.97286 86.178152 -0.0085355555 -1.1765823 
	-72.547501 -92.362626 -71.246077 87.937598 -0.0085355555 -1.1765823 -34.972859 86.177214 
0.675 -34.90967 86.180189 -0.0085790571 -1.185208 -71.181564 87.936608 -72.483013 -92.379924 
	-0.0085790571 -1.185208 -34.909669 86.179243 -72.483013 -92.379924 -71.181588 87.922497 
	-71.181564 87.936608 -72.483013 -92.379924 -34.90967 86.180189 -0.0085790571 -1.185208 
	-72.483013 -92.379924 -71.181588 87.922497 -0.0085790571 -1.185208 -34.909669 86.179243 
0.68 -34.846941 86.182102 -0.0086226181 -1.193833 -71.117551 87.921611 -72.419001 -92.39722 
	-0.0086226181 -1.193833 -34.84694 86.18115 -72.419001 -92.39722 -71.117575 87.907397 
	-71.117551 87.921611 -72.419001 -92.39722 -34.846941 86.182102 -0.0086226181 -1.193833 
	-72.419001 -92.39722 -71.117575 87.907397 -0.0086226181 -1.193833 -34.84694 86.18115 
0.685 -34.784667 86.183895 -0.0086662396 -1.2024573 -71.054009 87.906616 -72.355459 -92.414515 
	-0.0086662396 -1.2024573 -34.784666 86.182936 -72.355459 -92.414515 -71.054031 87.892298 
	-71.054009 87.906616 -72.355459 -92.414515 -34.784667 86.183895 -0.0086662396 -1.2024573 
	-72.355459 -92.414515 -71.054031 87.892298 -0.0086662396 -1.2024573 -34.784666 86.182936 
0.69 -34.722842 86.18557 -0.0087099227 -1.2110811 -70.990929 87.891622 -72.29238 -92.431809 
	-0.0087099227 -1.2110811 -34.722841 86.184603 -72.29238 -92.431809 -70.990951 87.877201 
	-70.990929 87.891622 -72.29238 -92.431809 -34.722842 86.18557 -0.0087099227 -1.2110811 
	-72.29238 -92.431809 -70.990951 87.877201 -0.0087099227 -1.2110811 -34.722841 86.184603 
0.695 -34.661459 86.187128 -0.0087536685 -1.2197043 -70.928305 87.876629 -72.229758 -92.449101 
	-0.0087536685 -1.2197043 -34.661458 86.186154 -72.229758 -92.449101 -70.928327 87.862104 
	-70.928305 87.876629 -72.229758 -92.449101 -34.661459 86.187128 -0.0087536685 -1.2197043 
	-72.229758 -92.449101 -70.928327 87.862104 -0.0087536685 -1.2197043 -34.661458 86.186154 
0.7 -34.600511 86.188572 -0.0087974782 -1.2283268 -70.866131 87.861637 -72.167585 -92.466392 
	-0.0087974782 -1.2283268 -34.60051 86.187591 -72.167585 -92.466392 -70.866153 87.847009 
	-70.866131 87.861637 -72.167585 -92.466392 -34.600511 86.188572 -0.0087974782 -1.2283268 