!AWR Design Environment (4254) Tue Jan 20 11:18:40 2009
!
!freq-unit  param-type  data-format  keyword  impedance-ohms
# GHz           S          MA           R         50
!-----------------------------------------------------------------------------
 0.0          0.00 	-86.491       0.0   89.637       0.0    90.213       18     -0.11063     
              0    	87.754       0.0   -89.093      
              0.00 	 89.637       0.0  -88.375       0.0   89.637       0.0    87.755      
              1     -0.11608      0.0   87.755      
              0    90.213       0.000   89.637       0.0  -86.491       0.0   -89.093      
              0    87.754       1     -0.11063     
              1    -0.11063      0.0    87.737       0.0   -89.092       0.0 -87.223      
              0.00  89.701       0.0   90.44       
              0.00    87.771       1     -0.11608      0.0    87.771       0.00   89.7        
              0.00 -88.763       0.0   89.7        
              0   -89.092       0.0    87.737       1    -0.11063      0.0    90.44       
              0.0  89.701       0.0  -87.223      




0.1          0.00010159  -86.491       0.00054311   89.637       9.6199e-5    90.213       0.99998     -0.11063     
              9.1176e-5    87.754       5.5357e-5   -89.093      
              0.00054409   89.637       0.00020822  -88.375       0.00054409   89.637       9.2147e-5    87.755      
              0.99998     -0.11608      9.2147e-5    87.755      
              9.6199e-5    90.213       0.00054311   89.637       0.00010159  -86.491       5.5357e-5   -89.093      
              9.1176e-5    87.754       0.99998     -0.11063     
              0.99998     -0.11063      9.1175e-5    87.737       5.5357e-5   -89.092       0.00010145  -87.223      
              0.00054313   89.701       9.6214e-5    90.44       
              9.2149e-5    87.771       0.99998     -0.11608      9.2149e-5    87.771       0.00054411   89.7        
              0.00020812  -88.763       0.00054411   89.7        
              5.5357e-5   -89.092       9.1175e-5    87.737       0.99998     -0.11063      9.6214e-5    90.44       
              0.00054313   89.701       0.00010145  -87.223      

 0.2          0.00030857  -88.825       0.0010774    89.468       0.00019104   89.897       0.99997     -0.2152      
              0.0001911    87.79        0.00010935  -89.554      
              0.0010794    89.467       0.00051782  -89.476       0.0010794    89.467       0.00019303   87.776      
              0.99997     -0.22635      0.00019303   87.776      
              0.00019104   89.897       0.0010774    89.468       0.00030857  -88.825       0.00010935  -89.554      
              0.0001911    87.79        0.99997     -0.2152      
              0.99997     -0.2152       0.0001911    87.765       0.00010935  -89.554       0.00030832  -89.661      
              0.0010775    89.606       0.00019109   90.365      
              0.00019304   87.802       0.99997     -0.22635      0.00019304   87.802       0.0010794    89.604      
              0.00051761  -90.023       0.0010794    89.604      
              0.00010935  -89.554       0.0001911    87.765       0.99997     -0.2152       0.00019109   90.365      
              0.0010775    89.606       0.00030832  -89.661      

 0.3          0.00050173  -89.377       0.0016113    89.309       0.0002848    89.638       0.99996     -0.32058     
              0.00029145   87.718       0.00016225  -89.924      
              0.0016142    89.308       0.00081553  -89.853       0.0016142    89.308       0.00029433   87.692      
              0.99995     -0.3373       0.00029433   87.692      
              0.0002848    89.638       0.0016113    89.309       0.00050173  -89.377       0.00016225  -89.924      
              0.00029145   87.718       0.99996     -0.32058     
              0.99996     -0.32058      0.00029144   87.682       0.00016225  -89.923       0.00050132  -90.485      
              0.0016115    89.518       0.0002849    90.344      
              0.00029434   87.727       0.99995     -0.3373       0.00029434   87.727       0.0016144    89.516      
              0.00081519  -90.605       0.0016144    89.516      
              0.00016225  -89.923       0.00029144   87.682       0.99996     -0.32058      0.0002849    90.344      
              0.0016115    89.518       0.00050132  -90.485      

 0.4          0.00069034  -89.655       0.0021457    89.155       0.00037861   89.408       0.99995     -0.42621     
              0.00039135   87.6         0.0002152   -90.247      
              0.0021495    89.154       0.0011089   -90.078       0.0021495    89.154       0.00039518   87.563      
              0.99994     -0.4485       0.00039518   87.563      
              0.00037861   89.408       0.0021457    89.155       0.00069034  -89.655       0.0002152   -90.247      
              0.00039135   87.6         0.99995     -0.42621     
              0.99995     -0.42621      0.00039134   87.554       0.0002152   -90.247       0.00068977  -91.061      
              0.0021459    89.435       0.00037878   90.35       
              0.00039519   87.609       0.99994     -0.4485       0.00039519   87.609       0.0021497    89.433      
              0.0011084   -91.043       0.0021497    89.433      
              0.0002152   -90.247       0.00039134   87.554       0.99995     -0.42621      0.00037878   90.35       
              0.0021459    89.435       0.00068977  -91.061      

 0.5          0.00087688  -89.828       0.0026803    89.003       0.00047256   89.192       0.99994     -0.53196     
              0.0004909    87.464       0.00026828  -90.547      
              0.0026851    89.003       0.0014003   -90.237       0.0026851    89.003       0.00049568   87.417      
              0.99993     -0.55981      0.00049568   87.417      
              0.00047256   89.192       0.0026803    89.003       0.00087688  -89.828       0.00026828  -90.547      
              0.0004909    87.464       0.99994     -0.53196     
              0.99994     -0.53196      0.00049089   87.407       0.00026828  -90.546       0.00087617  -91.54       
              0.0026806    89.354       0.00047281   90.37       
              0.0004957    87.473       0.99993     -0.55981      0.0004957    87.473       0.0026854    89.352      
              0.0013997   -91.421       0.0026854    89.352      
              0.00026828  -90.546       0.00049089   87.407       0.99994     -0.53196      0.00047281   90.37       
              0.0026806    89.354       0.00087617  -91.54       

 0.6          0.0010624   -89.944       0.0032152    88.853       0.00056663   88.984       0.99993     -0.63777     
              0.00059023   87.318       0.00032146  -90.832      
              0.0032209    88.853       0.0016906   -90.36        0.0032209    88.853       0.00059595   87.261      
              0.99991     -0.67118      0.00059595   87.261      
              0.00056663   88.984       0.0032152    88.853       0.0010624   -89.944       0.00032146  -90.832      
              0.00059023   87.318       0.99993     -0.63777     
              0.99993     -0.63777      0.00059021   87.251       0.00032146  -90.831       0.0010615   -91.967      
              0.0032156    89.274       0.00056698   90.399      
              0.00059597   87.328       0.99991     -0.67118      0.00059597   87.328       0.0032213    89.272      
              0.0016899   -91.764       0.0032213    89.272      
              0.00032146  -90.831       0.00059021   87.251       0.99993     -0.63777      0.00056698   90.399      
              0.0032156    89.274       0.0010615   -91.967      

 0.7          0.0012472   -90.026       0.0037502    88.704       0.00066079   88.782       0.99992     -0.74362     
              0.0006894    87.167       0.00037472  -91.109      
              0.0037568    88.704       0.0019804   -90.461       0.0037568    88.704       0.00069607   87.1        
              0.9999      -0.78258      0.00069607   87.1        
              0.00066079   88.782       0.0037502    88.704       0.0012472   -90.026       0.00037472  -91.109      
              0.0006894    87.167       0.99992     -0.74362     
              0.99992     -0.74362      0.00068938   87.089       0.00037472  -91.107       0.0012463   -92.361      
              0.0037506    89.195       0.00066126   90.432      
              0.00069609   87.177       0.9999      -0.78258      0.00069609   87.177       0.0037573    89.193      
              0.0019796   -92.086       0.0037573    89.193      
              0.00037472  -91.107       0.00068938   87.089       0.99992     -0.74362      0.00066126   90.432      
              0.0037506    89.195       0.0012463   -92.361      

 0.8          0.0014318   -90.084       0.0042852    88.555       0.00075502   88.583       0.99991     -0.84949     
              0.00078847   87.013       0.00042803  -91.379      
              0.0042929    88.555       0.0022697   -90.546       0.0042929    88.555       0.00079607   86.936      
              0.99988     -0.894        0.00079607   86.936      
              0.00075502   88.583       0.0042852    88.555       0.0014318   -90.084       0.00042803  -91.379      
              0.00078847   87.013       0.99991     -0.84949     
              0.99991     -0.84949      0.00078844   86.925       0.00042803  -91.377       0.0014308   -92.734      
              0.0042858    89.117       0.00075564   90.468      
              0.0007961    87.024       0.99988     -0.894        0.0007961    87.024       0.0042935    89.114      
              0.0022689   -92.394       0.0042935    89.114      
              0.00042803  -91.377       0.00078844   86.925       0.99991     -0.84949      0.00075564   90.468      
              0.0042858    89.117       0.0014308   -92.734      

 0.9          0.0016161   -90.127       0.0048204    88.406       0.0008493    88.386       0.99989     -0.95537     
              0.00088745   86.858       0.00048138  -91.646      
              0.0048289    88.406       0.0025589   -90.621       0.0048289    88.406       0.00089599   86.769      
              0.99987     -1.0054       0.00089599   86.769      
              0.0008493    88.386       0.0048204    88.406       0.0016161   -90.127       0.00048138  -91.646      
              0.00088745   86.858       0.99989     -0.95537     
              0.99989     -0.95537      0.00088742   86.758       0.00048138  -91.644       0.001615    -93.091      
              0.0048211    89.038       0.00085009   90.507      
              0.00089602   86.868       0.99987     -1.0054       0.00089602   86.868       0.0048296    89.035      
              0.002558    -92.691       0.0048296    89.035      
              0.00048138  -91.644       0.00088742   86.758       0.99989     -0.95537      0.00085009   90.507      
              0.0048211    89.038       0.001615    -93.091      

 1            0.0018003   -90.157       0.0053555    88.258       0.00094363   88.191       0.99988     -1.0613      
              0.00098638   86.7         0.00053476  -91.909      
              0.0053651    88.258       0.0028479   -90.688       0.0053651    88.258       0.00099585   86.602      
              0.99985     -1.1169       0.00099585   86.602      
              0.00094363   88.191       0.0053555    88.258       0.0018003   -90.157       0.00053476  -91.909      
              0.00098638   86.7         0.99988     -1.0613      
              0.99988     -1.0613       0.00098634   86.59        0.00053476  -91.907       0.0017992   -93.436      
              0.0053564    88.96        0.00094461   90.548      
              0.00099588   86.711       0.99985     -1.1169       0.00099588   86.711       0.0053659    88.957      
              0.0028471   -92.98        0.0053659    88.957      
              0.00053476  -91.907       0.00098634   86.59        0.99988     -1.0613       0.00094461   90.548      
              0.0053564    88.96        0.0017992   -93.436      

 1.1          0.0019844   -90.178       0.0058907    88.11        0.001038     87.998       0.99987     -1.1671      
              0.0010853    86.542       0.00058816  -92.17       
              0.0059012    88.11        0.0031368   -90.748       0.0059012    88.11        0.0010957    86.433      
              0.99984     -1.2283       0.0010957    86.433      
              0.001038     87.998       0.0058907    88.11        0.0019844   -90.178       0.00058816  -92.17       
              0.0010853    86.542       0.99987     -1.1671      
              0.99987     -1.1671       0.0010852    86.421       0.00058816  -92.167       0.0019833   -93.772      
              0.0058917    88.882       0.0010392    90.589      
              0.0010957    86.554       0.99984     -1.2283       0.0010957    86.554       0.0059021    88.879      
              0.003136    -93.263       0.0059021    88.879      
              0.00058816  -92.167       0.0010852    86.421       0.99987     -1.1671       0.0010392    90.589      
              0.0058917    88.882       0.0019833   -93.772      

 1.2          0.0021684   -90.192       0.006426     87.962       0.0011324    87.805       0.99986     -1.273       
              0.0011841    86.383       0.00064158  -92.429      
              0.0064373    87.962       0.0034256   -90.804       0.0064373    87.962       0.0011954    86.264      
              0.99982     -1.3397       0.0011954    86.264      
              0.0011324    87.805       0.006426     87.962       0.0021684   -90.192       0.00064158  -92.429      
              0.0011841    86.383       0.99986     -1.273       
              0.99986     -1.273        0.001184     86.251       0.00064158  -92.426       0.0021675   -94.101      
              0.006427     88.804       0.0011339    90.632      
              0.0011955    86.395       0.99982     -1.3397       0.0011955    86.395       0.0064384    88.801      
              0.003425    -93.541       0.0064384    88.801      
              0.00064158  -92.426       0.001184     86.251       0.99986     -1.273        0.0011339    90.632      
              0.006427     88.804       0.0021675   -94.101      

 1.3          0.0023524   -90.2         0.0069612    87.814       0.0012269    87.614       0.99985     -1.3789      
              0.0012829    86.223       0.00069501  -92.686      
              0.0069735    87.815       0.0037143   -90.855       0.0069735    87.815       0.0012951    86.094      
              0.9998      -1.4512       0.0012951    86.094      
              0.0012269    87.614       0.0069612    87.814       0.0023524   -90.2         0.00069501  -92.686      
              0.0012829    86.223       0.99985     -1.3789      
              0.99985     -1.3789       0.0012828    86.08        0.00069501  -92.683       0.0023516   -94.424      
              0.0069624    88.726       0.0012286    90.675      
              0.0012952    86.236       0.9998      -1.4512       0.0012952    86.236       0.0069746    88.723      
              0.0037139   -93.816       0.0069746    88.723      
              0.00069501  -92.683       0.0012828    86.08        0.99985     -1.3789       0.0012286    90.675      
              0.0069624    88.726       0.0023516   -94.424      

 1.4          0.0025364   -90.203       0.0074964    87.666       0.0013214    87.422       0.99983     -1.4848      
              0.0013817    86.063       0.00074844  -92.943      
              0.0075096    87.667       0.004003    -90.904       0.0075096    87.667       0.0013948    85.923      
              0.99978     -1.5626       0.0013948    85.923      
              0.0013214    87.422       0.0074964    87.666       0.0025364   -90.203       0.00074844  -92.943      
              0.0013817    86.063       0.99983     -1.4848      
              0.99983     -1.4848       0.0013816    85.909       0.00074844  -92.939       0.0025358   -94.743      
              0.0074977    88.648       0.0013234    90.72       
              0.0013949    86.076       0.99978     -1.5626       0.0013949    86.076       0.0075109    88.645      
              0.0040029   -94.087       0.0075109    88.645      
              0.00074844  -92.939       0.0013816    85.909       0.99983     -1.4848       0.0013234    90.72       
              0.0074977    88.648       0.0025358   -94.743      

 1.5          0.0027204   -90.202       0.0080317    87.518       0.0014159    87.232       0.99982     -1.5907      
              0.0014804    85.902       0.00080188  -93.198      
              0.0080458    87.519       0.0042916   -90.949       0.0080458    87.519       0.0014945    85.752      
              0.99977     -1.6741       0.0014945    85.752      
              0.0014159    87.232       0.0080317    87.518       0.0027204   -90.202       0.00080188  -93.198      
              0.0014804    85.902       0.99982     -1.5907      
              0.99982     -1.5907       0.0014804    85.738       0.00080189  -93.194       0.00272     -95.057      
              0.0080331    88.571       0.0014182    90.764      
              0.0014945    85.916       0.99977     -1.6741       0.0014945    85.916       0.0080472    88.567      
              0.0042918   -94.355       0.0080472    88.567      
              0.00080189  -93.194       0.0014804    85.738       0.99982     -1.5907       0.0014182    90.764      
              0.0080331    88.571       0.00272     -95.057      

 1.6          0.0029044   -90.198       0.0085669    87.371       0.0015104    87.041       0.99981     -1.6966      
              0.0015791    85.741       0.00085533  -93.452      
              0.0085819    87.372       0.0045802   -90.993       0.0085819    87.372       0.0015941    85.581      
              0.99975     -1.7855       0.0015941    85.581      
              0.0015104    87.041       0.0085669    87.371       0.0029044   -90.198       0.00085533  -93.452      
              0.0015791    85.741       0.99981     -1.6966      
              0.99981     -1.6966       0.0015791    85.566       0.00085533  -93.448       0.0029043   -95.369      
              0.0085684    88.493       0.0015132    90.81       
              0.0015942    85.755       0.99975     -1.7855       0.0015942    85.755       0.0085834    88.489      
              0.0045808   -94.622       0.0085834    88.489      
              0.00085533  -93.448       0.0015791    85.566       0.99981     -1.6966       0.0015132    90.81       
              0.0085684    88.493       0.0029043   -95.369      

 1.7          0.0030884   -90.191       0.0091021    87.223       0.001605     86.851       0.9998      -1.8025      
              0.0016778    85.58        0.00090878  -93.706      
              0.0091181    87.224       0.0048688   -91.034       0.0091181    87.224       0.0016937    85.41       
              0.99973     -1.8969       0.0016937    85.41       
              0.001605     86.851       0.0091021    87.223       0.0030884   -90.191       0.00090878  -93.706      
              0.0016778    85.58        0.9998      -1.8025      
              0.9998      -1.8025       0.0016778    85.394       0.00090878  -93.702       0.0030886   -95.677      
              0.0091038    88.416       0.0016082    90.855      
              0.0016938    85.594       0.99973     -1.8969       0.0016938    85.594       0.0091197    88.412      
              0.0048698   -94.886       0.0091197    88.412      
              0.00090878  -93.702       0.0016778    85.394       0.9998      -1.8025       0.0016082    90.855      
              0.0091038    88.416       0.0030886   -95.677      

 1.8          0.0032724   -90.182       0.0096374    87.075       0.0016997    86.662       0.99978     -1.9084      
              0.0017765    85.419       0.00096223  -93.959      
              0.0096542    87.077       0.0051573   -91.074       0.0096542    87.077       0.0017933    85.238      
              0.99971     -2.0084       0.0017933    85.238      
              0.0016997    86.662       0.0096374    87.075       0.0032724   -90.182       0.00096223  -93.959      
              0.0017765    85.419       0.99978     -1.9084      
              0.99978     -1.9084       0.0017765    85.222       0.00096223  -93.955       0.003273    -95.983      
              0.0096391    88.338       0.0017032    90.901      
              0.0017934    85.433       0.99971     -2.0084       0.0017934    85.433       0.0096559    88.334      
              0.0051589   -95.148       0.0096559    88.334      
              0.00096223  -93.955       0.0017765    85.222       0.99978     -1.9084       0.0017032    90.901      
              0.0096391    88.338       0.003273    -95.983      

 1.9          0.0034564   -90.17        0.010173     86.928       0.0017943    86.472       0.99977     -2.0143      
              0.0018752    85.257       0.0010157   -94.211      
              0.01019      86.929       0.0054458   -91.112       0.01019      86.929       0.0018928    85.066      
              0.99968     -2.1198       0.0018928    85.066      
              0.0017943    86.472       0.010173     86.928       0.0034564   -90.17        0.0010157   -94.211      
              0.0018752    85.257       0.99977     -2.0143      
              0.99977     -2.0143       0.0018751    85.05        0.0010157   -94.207       0.0034575   -96.286      
              0.010174     88.261       0.0017984    90.947      
              0.0018929    85.272       0.99968     -2.1198       0.0018929    85.272       0.010192     88.257      
              0.005448    -95.409       0.010192     88.257      
              0.0010157   -94.207       0.0018751    85.05        0.99977     -2.0143       0.0017984    90.947      
              0.010174     88.261       0.0034575   -96.286      

 2            0.0036404   -90.157       0.010708     86.78        0.001889     86.283       0.99975     -2.1202      
              0.0019738    85.095       0.0010691   -94.463      
              0.010726     86.782       0.0057342   -91.149       0.010726     86.782       0.0019924    84.894      
              0.99966     -2.2312       0.0019924    84.894      
              0.001889     86.283       0.010708     86.78        0.0036404   -90.157       0.0010691   -94.463      
              0.0019738    85.095       0.99975     -2.1202      
              0.99975     -2.1202       0.0019738    84.877       0.0010691   -94.459       0.003642    -96.588      
              0.01071      88.183       0.0018936    90.994      
              0.0019924    85.111       0.99966     -2.2312       0.0019924    85.111       0.010728     88.179      
              0.0057371   -95.669       0.010728     88.179      
              0.0010691   -94.459       0.0019738    84.877       0.99975     -2.1202       0.0018936    90.994      
              0.01071      88.183       0.003642    -96.588      

 2.1          0.0038245   -90.142       0.011243     86.633       0.0019838    86.094       0.99974     -2.2261      
              0.0020724    84.933       0.0011226   -94.715      
              0.011263     86.635       0.0060226   -91.185       0.011263     86.635       0.0020919    84.722      
              0.99964     -2.3426       0.0020919    84.722      
              0.0019838    86.094       0.011243     86.633       0.0038245   -90.142       0.0011226   -94.715      
              0.0020724    84.933       0.99974     -2.2261      
              0.99974     -2.2261       0.0020724    84.704       0.0011226   -94.71        0.0038267   -96.888      
              0.011245     88.106       0.0019889    91.041      
              0.0020919    84.949       0.99964     -2.3426       0.0020919    84.949       0.011264     88.102      
              0.0060263   -95.928       0.011264     88.102      
              0.0011226   -94.71        0.0020724    84.704       0.99974     -2.2261       0.0019889    91.041      
              0.011245     88.106       0.0038267   -96.888      

 2.2          0.0040085   -90.126       0.011778     86.485       0.0020786    85.904       0.99972     -2.332       
              0.002171     84.772       0.001176    -94.966      
              0.011799     86.487       0.0063109   -91.22        0.011799     86.487       0.0021913    84.549      
              0.99962     -2.454        0.0021913    84.549      
              0.0020786    85.904       0.011778     86.485       0.0040085   -90.126       0.001176    -94.966      
              0.002171     84.772       0.99972     -2.332       
              0.99973     -2.332        0.002171     84.532       0.001176    -94.961       0.0040114   -97.186      
              0.01178      88.029       0.0020843    91.088      
              0.0021914    84.788       0.99962     -2.454        0.0021914    84.788       0.011801     88.024      
              0.0063156   -96.185       0.011801     88.024      
              0.001176    -94.961       0.002171     84.532       0.99973     -2.332        0.0020843    91.088      
              0.01178      88.029       0.0040114   -97.186      

 2.3          0.0041926   -90.108       0.012314     86.338       0.0021734    85.715       0.99971     -2.4378      
              0.0022696    84.609       0.0012295   -95.217      
              0.012335     86.34        0.0065992   -91.254       0.012335     86.34        0.0022908    84.377      
              0.99959     -2.5655       0.0022908    84.377      
              0.0021734    85.715       0.012314     86.338       0.0041926   -90.108       0.0012295   -95.217      
              0.0022696    84.609       0.99971     -2.4378      
              0.99971     -2.4378       0.0022696    84.359       0.0012295   -95.212       0.0041962   -97.483      
              0.012316     87.952       0.0021797    91.135      
              0.0022908    84.626       0.99959     -2.5655       0.0022908    84.626       0.012337     87.947      
              0.0066048   -96.442       0.012337     87.947      
              0.0012295   -95.212       0.0022696    84.359       0.99971     -2.4378       0.0021797    91.135      
              0.012316     87.952       0.0041962   -97.483      

 2.4          0.0043767   -90.09        0.012849     86.19        0.0022683    85.526       0.99969     -2.5437      
              0.0023682    84.447       0.0012829   -95.468      
              0.012871     86.192       0.0068874   -91.287       0.012871     86.192       0.0023902    84.204      
              0.99957     -2.6769       0.0023902    84.204      
              0.0022683    85.526       0.012849     86.19        0.0043767   -90.09        0.0012829   -95.468      
              0.0023682    84.447       0.99969     -2.5437      
              0.99969     -2.5437       0.0023681    84.186       0.0012829   -95.462       0.0043811   -97.779      
              0.012851     87.874       0.0022753    91.182      
              0.0023902    84.465       0.99957     -2.6769       0.0023902    84.465       0.012873     87.869      
              0.0068941   -96.698       0.012873     87.869      
              0.0012829   -95.462       0.0023681    84.186       0.99969     -2.5437       0.0022753    91.182      
              0.012851     87.874       0.0043811   -97.779      

 2.5          0.0045608   -90.07        0.013384     86.042       0.0023632    85.337       0.99968     -2.6496      
              0.0024667    84.285       0.0013364   -95.718      
              0.013407     86.045       0.0071755   -91.319       0.013407     86.045       0.0024895    84.032      
              0.99954     -2.7883       0.0024895    84.032      
              0.0023632    85.337       0.013384     86.042       0.0045608   -90.07        0.0013364   -95.718      
              0.0024667    84.285       0.99968     -2.6496      
              0.99968     -2.6496       0.0024667    84.013       0.0013364   -95.712       0.0045661   -98.073      
              0.013386     87.797       0.002371     91.23       
              0.0024896    84.303       0.99954     -2.7883       0.0024896    84.303       0.013409     87.792      
              0.0071835   -96.953       0.013409     87.792      
              0.0013364   -95.712       0.0024667    84.013       0.99968     -2.6496       0.002371     91.23       
              0.013386     87.797       0.0045661   -98.073      

 2.6          0.0047449   -90.049       0.013919     85.895       0.0024582    85.148       0.99966     -2.7555      
              0.0025652    84.123       0.0013898   -95.969      
              0.013943     85.898       0.0074636   -91.351       0.013943     85.898       0.0025889    83.859      
              0.99952     -2.8997       0.0025889    83.859      
              0.0024582    85.148       0.013919     85.895       0.0047449   -90.049       0.0013898   -95.969      
              0.0025652    84.123       0.99966     -2.7555      
              0.99966     -2.7555       0.0025652    83.839       0.0013898   -95.962       0.0047512   -98.367      
              0.013921     87.72        0.0024667    91.278      
              0.0025889    84.141       0.99952     -2.8997       0.0025889    84.141       0.013945     87.715      
              0.0074729   -97.208       0.013945     87.715      
              0.0013898   -95.962       0.0025652    83.839       0.99966     -2.7555       0.0024667    91.278      
              0.013921     87.72        0.0047512   -98.367      

 2.7          0.004929    -90.028       0.014454     85.747       0.0025532    84.959       0.99965     -2.8614      