! AWR Design Environment (9226) Thu Dec 10 22:37:02 2020
! Document = 'GTRB264318_passive'
! nPorts: 9, nXvals: 2003

# MHz S DB R 50
!Freq DBS11 AngS11 DBS12 AngS12 DBS13 AngS13 DBS14 AngS14 
!	DBS15 AngS15 DBS16 AngS16 DBS17 AngS17 DBS18 AngS18 
!	DBS19 AngS19 
!	DBS21 AngS21 DBS22 AngS22 DBS23 AngS23 DBS24 AngS24 
!	DBS25 AngS25 DBS26 AngS26 DBS27 AngS27 DBS28 AngS28 
!	DBS29 AngS29 
!	DBS31 AngS31 DBS32 AngS32 DBS33 AngS33 DBS34 AngS34 
!	DBS35 AngS35 DBS36 AngS36 DBS37 AngS37 DBS38 AngS38 
!	DBS39 AngS39 
!	DBS41 AngS41 DBS42 AngS42 DBS43 AngS43 DBS44 AngS44 
!	DBS45 AngS45 DBS46 AngS46 DBS47 AngS47 DBS48 AngS48 
!	DBS49 AngS49 
!	DBS51 AngS51 DBS52 AngS52 DBS53 AngS53 DBS54 AngS54 
!	DBS55 AngS55 DBS56 AngS56 DBS57 AngS57 DBS58 AngS58 
!	DBS59 AngS59 
!	DBS61 AngS61 DBS62 AngS62 DBS63 AngS63 DBS64 AngS64 
!	DBS65 AngS65 DBS66 AngS66 DBS67 AngS67 DBS68 AngS68 
!	DBS69 AngS69 
!	DBS71 AngS71 DBS72 AngS72 DBS73 AngS73 DBS74 AngS74 
!	DBS75 AngS75 DBS76 AngS76 DBS77 AngS77 DBS78 AngS78 
!	DBS79 AngS79 
!	DBS81 AngS81 DBS82 AngS82 DBS83 AngS83 DBS84 AngS84 
!	DBS85 AngS85 DBS86 AngS86 DBS87 AngS87 DBS88 AngS88 
!	DBS89 AngS89 
!	DBS91 AngS91 DBS92 AngS92 DBS93 AngS93 DBS94 AngS94 
!	DBS95 AngS95 DBS96 AngS96 DBS97 AngS97 DBS98 AngS98 
!	DBS99 AngS99 
0 -67.740785 -0 -800 0 -800 0 -800 0 
	-800 0 -0.00356337 -0 -800 0 -800 0 
	-800 0 
	-800 0 -72.385604 -0 -800 0 -800 0 
	-800 0 -800 0 -0.0020873928 -0 -800 0 
	-800 0 
	-800 0 -800 0 0 -0 -800 0 
	-800 0 -800 0 -800 0 -800 0 
	-800 0 
	-800 0 -800 0 -800 0 -72.031591 -0 
	-800 0 -800 0 -800 0 -0.0021740514 -0 
	-800 0 
	-800 0 -800 0 -800 0 -800 0 
	-66.019159 -0 -800 0 -800 0 -800 0 
	-0.0043447629 -0 
	-0.00356337 -0 -800 0 -800 0 -800 0 
	-800 0 -67.740785 0 -800 0 -800 0 
	-800 0 
	-800 0 -0.0020873928 -0 -800 0 -800 0 
	-800 0 -800 0 -72.385604 0 -800 0 
	-800 0 
	-800 0 -800 0 -800 0 -0.0021740514 -0 
	-800 0 -800 0 -800 0 -72.031591 0 
	-800 0 
	-800 0 -800 0 -800 0 -800 0 
	-0.0043447629 -0 -800 0 -800 0 -800 0 
	-66.019159 0 
0.1 -64.457315 -46.759956 -800 0 -800 0 -800 0 
	-800 0 -0.0035655491 -0.02542229 -800 0 -800 0 
	-800 0 
	-800 0 -55.769614 -81.60082 -800 0 -800 0 
	-800 0 -800 0 -0.0021000624 -0.092936608 -800 0 
	-800 0 
	-800 0 -800 0 0 -0 -800 0 
	-800 0 -800 0 -800 0 -800 0 
	-800 0 
	-800 0 -800 0 -800 0 -63.615497 -67.724837 
	-800 0 -800 0 -800 0 -0.0021770645 -0.035415156 
	-800 0 
	-800 0 -800 0 -800 0 -800 0 
	-66.006182 -2.9091975 -800 0 -800 0 -800 0 
	-0.0043460958 -0.0017838077 
	-0.0035655491 -0.02542229 -800 0 -800 0 -800 0 
	-800 0 -64.457009 -46.761465 -800 0 -800 0 
	-800 0 
	-800 0 -0.0021000624 -0.092936608 -800 0 -800 0 
	-800 0 -800 0 -55.761676 -81.607283 -800 0 
	-800 0 
	-800 0 -800 0 -800 0 -0.0021770645 -0.035415156 
	-800 0 -800 0 -800 0 -63.613806 -67.728968 
	-800 0 
	-800 0 -800 0 -800 0 -800 0 
	-0.0043460958 -0.0017838077 -800 0 -800 0 -800 0 
	-66.006234 -2.9027459 
1 -47.172222 -84.877914 -800 0 -800 0 -800 0 
	-800 0 -0.003653519 -0.25416233 -800 0 -800 0 
	-800 0 
	-800 0 -35.865031 -90.087322 -800 0 -800 0 
	-800 0 -800 0 -0.003240677 -0.92922563 -800 0 
	-800 0 
	-800 0 -800 0 0 -0 -800 0 
	-800 0 -800 0 -800 0 -800 0 
	-800 0 
	-800 0 -800 0 -800 0 -44.282777 -88.005791 
	-800 0 -800 0 -800 0 -0.0023441458 -0.35408779 
	-800 0 
	-800 0 -800 0 -800 0 -800 0 
	-65.010514 -27.025845 -800 0 -800 0 -800 0 
	-0.004352212 -0.017779038 
	-0.003653519 -0.25416233 -800 0 -800 0 -800 0 
	-800 0 -47.17164 -84.874629 -800 0 -800 0 
	-800 0 
	-800 0 -0.003240677 -0.92922563 -800 0 -800 0 
	-800 0 -800 0 -35.856904 -90.074835 -800 0 
	-800 0 
	-800 0 -800 0 -800 0 -0.0023441458 -0.35408779 
	-800 0 -800 0 -800 0 -44.280792 -88.002116 
	-800 0 
	-800 0 -800 0 -800 0 -800 0 
	-0.004352212 -0.017779038 -800 0 -800 0 -800 0 
	-65.014755 -26.975431 
10 -27.217426 -92.022498 -800 0 -800 0 -800 0 
	-800 0 -0.011898035 -2.5397281 -800 0 -800 0 
	-800 0 
	-800 0 -15.973784 -99.274026 -800 0 -800 0 
	-800 0 -800 0 -0.11539675 -9.2163825 -800 0 
	-800 0 
	-800 0 -800 0 0 0 -800 0 
	-800 0 -800 0 -800 0 -800 0 
	-800 0 
	-800 0 -800 0 -800 0 -24.305452 -93.331975 
	-800 0 -800 0 -800 0 -0.018478195 -3.5362301 
	-800 0 
	-800 0 -800 0 -800 0 -800 0 
	-51.68537 -79.085097 -800 0 -800 0 -800 0 
	-0.0044173521 -0.17748555 
	-0.011898035 -2.5397281 -800 0 -800 0 -800 0 
	-800 0 -27.216775 -91.98728 -800 0 -800 0 
	-800 0 
	-800 0 -0.11539675 -9.2163825 -800 0 -800 0 
	-800 0 -800 0 -15.965588 -99.142441 -800 0 
	-800 0 
	-800 0 -800 0 -800 0 -0.018478195 -3.5362301 
	-800 0 -800 0 -800 0 -24.303398 -93.291104 
	-800 0 
	-800 0 -800 0 -800 0 -800 0 
	-0.0044173521 -0.17748555 -800 0 -800 0 -800 0 
	-51.705196 -79.105919 
20 -21.221907 -94.844379 -800 0 -800 0 -800 0 
	-800 0 -0.036707469 -5.0697607 -800 0 -800 0 
	-800 0 
	-800 0 -10.26501 -108.24443 -800 0 -800 0 
	-800 0 -800 0 -0.4397083 -18.000583 -800 0 
	-800 0 
	-800 0 -800 0 0 -0 -800 0 
	-800 0 -800 0 -800 0 -800 0 
	-800 0 
	-800 0 -800 0 -800 0 -18.33332 -96.990622 
	-800 0 -800 0 -800 0 -0.066928867 -7.0462707 
	-800 0 
	-800 0 -800 0 -800 0 -800 0 
	-45.784023 -84.738745 -800 0 -800 0 -800 0 
	-0.004535058 -0.35487264 
	-0.036707469 -5.0697607 -800 0 -800 0 -800 0 
	-800 0 -21.221218 -94.774258 -800 0 -800 0 
	-800 0 
	-800 0 -0.4397083 -18.000583 -800 0 -800 0 
	-800 0 -800 0 -10.25677 -107.9815 -800 0 
	-800 0 
	-800 0 -800 0 -800 0 -0.066928867 -7.0462707 
	-800 0 -800 0 -800 0 -18.331227 -96.909173 
	-800 0 
	-800 0 -800 0 -800 0 -800 0 
	-0.004535058 -0.35487264 -800 0 -800 0 -800 0 
	-45.804408 -84.818627 
30 -17.741307 -97.467124 -800 0 -800 0 -800 0 
	-800 0 -0.077718116 -7.5808025 -800 0 -800 0 
	-800 0 
	-800 0 -7.2178126 -116.4345 -800 0 -800 0 
	-800 0 -800 0 -0.93516043 -26.032638 -800 0 
	-800 0 
	-800 0 -800 0 0 -0 -800 0 
	-800 0 -800 0 -800 0 -800 0 
	-800 0 
	-800 0 -800 0 -800 0 -14.891117 -100.51953 
	-800 0 -800 0 -800 0 -0.1464729 -10.505262 
	-800 0 
	-800 0 -800 0 -800 0 -800 0 
	-42.284004 -86.755687 -800 0 -800 0 -800 0 
	-0.0047072214 -0.53224047 
	-0.077718116 -7.5808025 -800 0 -800 0 -800 0 
	-800 0 -17.740589 -97.36217 -800 0 -800 0 
	-800 0 
	-800 0 -0.93516043 -26.032638 -800 0 -800 0 
	-800 0 -800 0 -7.209537 -116.0403 -800 0 
	-800 0 
	-800 0 -800 0 -800 0 -0.1464729 -10.505262 
	-800 0 -800 0 -800 0 -14.888993 -100.39758 
	-800 0 
	-800 0 -800 0 -800 0 -800 0 
	-0.0047072214 -0.53224047 -800 0 -800 0 -800 0 
	-42.304492 -86.886508 
40 -15.299581 -100.01685 -800 0 -800 0 -800 0 
	-800 0 -0.1344711 -10.06391 -800 0 -800 0 
	-800 0 
	-800 0 -5.3069153 -123.70599 -800 0 -800 0 
	-800 0 -800 0 -1.5522742 -33.152584 -800 0 
	-800 0 
	-800 0 -800 0 0 -0 -800 0 
	-800 0 -800 0 -800 0 -800 0 
	-800 0 
	-800 0 -800 0 -800 0 -12.501427 -103.95492 
	-800 0 -800 0 -800 0 -0.25542468 -13.890439 
	-800 0 
	-800 0 -800 0 -800 0 -800 0 
	-39.792705 -87.845034 -800 0 -800 0 -800 0 
	-0.0049349849 -0.70959468 
	-0.1344711 -10.06391 -800 0 -800 0 -800 0 
	-800 0 -15.298838 -99.877093 -800 0 -800 0 
	-800 0 
	-800 0 -1.5522742 -33.152584 -800 0 -800 0 
	-800 0 -800 0 -5.298607 -123.18051 -800 0 
	-800 0 
	-800 0 -800 0 -800 0 -0.25542468 -13.890439 
	-800 0 -800 0 -800 0 -12.499277 -103.7925 
	-800 0 
	-800 0 -800 0 -800 0 -800 0 
	-0.0049349849 -0.70959468 -800 0 -800 0 -800 0 
	-39.813228 -88.024638 
50 -13.433642 -102.51224 -800 0 -800 0 -800 0 
	-800 0 -0.2063466 -12.510742 -800 0 -800 0 
	-800 0 
	-800 0 -4.0237548 -130.0426 -800 0 -800 0 
	-800 0 -800 0 -2.2450541 -39.339549 -800 0 
	-800 0 
	-800 0 -800 0 0 -0 -800 0 
	-800 0 -800 0 -800 0 -800 0 
	-800 0 
	-800 0 -800 0 -800 0 -10.699571 -107.2888 
	-800 0 -800 0 -800 0 -0.39158785 -17.182005 
	-800 0 
	-800 0 -800 0 -800 0 -800 0 
	-37.857956 -88.561358 -800 0 -800 0 -800 0 
	-0.0052187916 -0.88693653 
	-0.2063466 -12.510742 -800 0 -800 0 -800 0 
	-800 0 -13.432878 -102.33771 -800 0 -800 0 
	-800 0 
	-800 0 -2.2450541 -39.339549 -800 0 -800 0 
	-800 0 -800 0 -4.015415 -129.38581 -800 0 
	-800 0 
	-800 0 -800 0 -800 0 -0.39158785 -17.182005 
	-800 0 -800 0 -800 0 -10.697398 -107.08594 
	-800 0 
	-800 0 -800 0 -800 0 -800 0 
	-0.0052187916 -0.88693653 -800 0 -800 0 -800 0 
	-37.878493 -88.78887 
60 -11.936734 -104.95474 -800 0 -800 0 -800 0 
	-800 0 -0.29258603 -14.913715 -800 0 -800 0 
	-800 0 
	-800 0 -3.1262478 -135.51245 -800 0 -800 0 
	-800 0 -800 0 -2.9775331 -44.659948 -800 0 
	-800 0 
	-800 0 -800 0 0 -0 -800 0 
	-800 0 -800 0 -800 0 -800 0 
	-800 0 
	-800 0 -800 0 -800 0 -9.2769786 -110.5088 
	-800 0 -800 0 -800 0 -0.55239248 -20.36365 
	-800 0 
	-800 0 -800 0 -800 0 -800 0 
	-36.27627 -89.090712 -800 0 -800 0 -800 0 
	-0.0055588655 -1.0642658 
	-0.29258603 -14.913715 -800 0 -800 0 -800 0 
	-800 0 -11.93595 -104.74544 -800 0 -800 0 
	-800 0 
	-800 0 -2.9775331 -44.659948 -800 0 -800 0 
	-800 0 -800 0 -3.1178766 -134.72428 -800 0 
	-800 0 
	-800 0 -800 0 -800 0 -0.55239248 -20.36365 
	-800 0 -800 0 -800 0 -9.2747837 -110.2655 
	-800 0 
	-800 0 -800 0 -800 0 -800 0 
	-0.0055588655 -1.0642658 -800 0 -800 0 -800 0 
	-36.296814 -89.365692 
70 -10.698098 -107.3415 -800 0 -800 0 -800 0 
	-800 0 -0.39231711 -17.266116 -800 0 -800 0 
	-800 0 
	-800 0 -2.479348 -140.22207 -800 0 -800 0 
	-800 0 -800 0 -3.7246961 -49.219446 -800 0 
	-800 0 
	-800 0 -800 0 0 -0 -800 0 
	-800 0 -800 0 -800 0 -800 0 
	-800 0 
	-800 0 -800 0 -800 0 -8.1209613 -113.60403 
	-800 0 -800 0 -800 0 -0.73503846 -23.422781 
	-800 0 
	-800 0 -800 0 -800 0 -800 0 
	-34.938609 -89.513068 -800 0 -800 0 -800 0 
	-0.0059553338 -1.2415815 
	-0.39231711 -17.266116 -800 0 -800 0 -800 0 
	-800 0 -10.697296 -107.09745 -800 0 -800 0 
	-800 0 
	-800 0 -3.7246961 -49.219446 -800 0 -800 0 
	-800 0 -800 0 -2.4709452 -139.30245 -800 0 
	-800 0 
	-800 0 -800 0 -800 0 -0.73503846 -23.422781 
	-800 0 -800 0 -800 0 -8.1187461 -113.3203 
	-800 0 
	-800 0 -800 0 -800 0 -800 0 
	-0.0059553338 -1.2415815 -800 0 -800 0 -800 0 
	-34.959157 -89.835265 
80 -9.6511806 -109.66869 -800 0 -800 0 -800 0 
	-800 0 -0.50458077 -19.562173 -800 0 -800 0 
	-800 0 
	-800 0 -2.0013847 -144.2857 -800 0 -800 0 
	-800 0 -800 0 -4.470639 -53.131659 -800 0 
	-800 0 
	-800 0 -800 0 0 -0 -800 0 
	-800 0 -800 0 -800 0 -800 0 
	-800 0 
	-800 0 -800 0 -800 0 -7.1630312 -116.56642 
	-800 0 -800 0 -800 0 -0.93663084 -26.350484 
	-800 0 
	-800 0 -800 0 -800 0 -800 0 
	-33.77973 -89.868481 -800 0 -800 0 -800 0 
	-0.0064082738 -1.4188826 
	-0.50458077 -19.562173 -800 0 -800 0 -800 0 
	-800 0 -9.650362 -109.38988 -800 0 -800 0 
	-800 0 
	-800 0 -4.470639 -53.131659 -800 0 -800 0 
	-800 0 -800 0 -1.9929498 -143.23454 -800 0 
	-800 0 
	-800 0 -800 0 -800 0 -0.93663084 -26.350484 
	-800 0 -800 0 -800 0 -7.1607967 -116.24226 
	-800 0 
	-800 0 -800 0 -800 0 -800 0 
	-0.0064082738 -1.4188826 -800 0 -800 0 -800 0 
	-33.800279 -90.237735 
90 -8.7526556 -111.93258 -800 0 -800 0 -800 0 
	-800 0 -0.62835811 -21.797097 -800 0 -800 0 
	-800 0 
	-800 0 -1.6405655 -147.8094 -800 0 -800 0 
	-800 0 -800 0 -5.2060832 -56.502175 -800 0 
	-800 0 
	-800 0 -800 0 0 -0 -800 0 
	-800 0 -800 0 -800 0 -800 0 
	-800 0 
	-800 0 -800 0 -800 0 -6.3580068 -119.39095 
	-800 0 -800 0 -800 0 -1.1542969 -29.141276 
	-800 0 
	-800 0 -800 0 -800 0 -800 0 
	-32.757486 -90.179225 -800 0 -800 0 -800 0 
	-0.0069177329 -1.5961676 
	-0.62835811 -21.797097 -800 0 -800 0 -800 0 
	-800 0 -8.7518213 -111.61903 -800 0 -800 0 
	-800 0 
	-800 0 -5.2060832 -56.502175 -800 0 -800 0 
	-800 0 -800 0 -1.6320974 -146.62659 -800 0 
	-800 0 
	-800 0 -800 0 -800 0 -1.1542969 -29.141276 
	-800 0 -800 0 -800 0 -6.3557538 -119.02637 
	-800 0 
	-800 0 -800 0 -800 0 -800 0 
	-0.0069177329 -1.5961676 -800 0 -800 0 -800 0 
	-32.778036 -90.595432 
100 -7.9725816 -114.13002 -800 0 -800 0 -800 0 
	-800 0 -0.7625963 -23.967071 -800 0 -800 0 
	-800 0 
	-800 0 -1.3629446 -150.88504 -800 0 -800 0 
	-800 0 -800 0 -5.9262103 -59.422421 -800 0 
	-800 0 
	-800 0 -800 0 0 -0 -800 0 
	-800 0 -800 0 -800 0 -800 0 
	-800 0 
	-800 0 -800 0 -800 0 -5.6742423 -122.07547 
	-800 0 -800 0 -800 0 -1.385279 -31.792712 
	-800 0 
	-800 0 -800 0 -800 0 -800 0 
	-31.843074 -90.458677 -800 0 -800 0 -800 0 
	-0.0074837399 -1.7734351 
	-0.7625963 -23.967071 -800 0 -800 0 -800 0 
	-800 0 -7.9717325 -113.78172 -800 0 -800 0 
	-800 0 
	-800 0 -5.9262103 -59.422421 -800 0 -800 0 
	-800 0 -800 0 -1.3544423 -149.57045 -800 0 
	-800 0 
	-800 0 -800 0 -800 0 -1.385279 -31.792712 
	-800 0 -800 0 -800 0 -5.6719713 -121.67046 
	-800 0 
	-800 0 -800 0 -800 0 -800 0 
	-0.0074837399 -1.7734351 -800 0 -800 0 -800 0 
	-31.863623 -90.921762 
110 -7.2892907 -116.25854 -800 0 -800 0 -800 0 
	-800 0 -0.90623225 -26.069223 -800 0 -800 0 
	-800 0 
	-800 0 -1.1456821 -153.58934 -800 0 -800 0 
	-800 0 -800 0 -6.6290603 -61.9687 -800 0 
	-800 0 
	-800 0 -800 0 0 -0 -800 0 
	-800 0 -800 0 -800 0 -800 0 
	-800 0 
	-800 0 -800 0 -800 0 -5.0885574 -124.62027 
	-800 0 -800 0 -800 0 -1.6270016 -34.30492 
	-800 0 
	-800 0 -800 0 -800 0 -800 0 
	-31.015935 -90.715353 -800 0 -800 0 -800 0 
	-0.00810631 -1.9506834 
	-0.90623225 -26.069223 -800 0 -800 0 -800 0 
	-800 0 -7.2884276 -115.87549 -800 0 -800 0 
	-800 0 
	-800 0 -6.6290603 -61.9687 -800 0 -800 0 
	-800 0 -800 0 -1.1371444 -152.14282 -800 0 
	-800 0 
	-800 0 -800 0 -800 0 -1.6270016 -34.30492 
	-800 0 -800 0 -800 0 -5.086269 -124.17484 
	-800 0 
	-800 0 -800 0 -800 0 -800 0 
	-0.00810631 -1.9506834 -800 0 -800 0 -800 0 
	-31.036484 -91.225263 
120 -6.6865167 -118.31643 -800 0 -800 0 -800 0 
	-800 0 -1.0582133 -28.101568 -800 0 -800 0 
	-800 0 
	-800 0 -0.97305816 -155.98521 -800 0 -800 0 
	-800 0 -800 0 -7.3144425 -64.203492 -800 0 
	-800 0 
	-800 0 -800 0 0 -0 -800 0 
	-800 0 -800 0 -800 0 -800 0 
	-800 0 
	-800 0 -800 0 -800 0 -4.583388 -127.0277 
	-800 0 -800 0 -800 0 -1.8771143 -36.680102 
	-800 0 
	-800 0 -800 0 -800 0 -800 0 
	-30.260884 -90.954934 -800 0 -800 0 -800 0 
	-0.0087854487 -2.1279109 
	-1.0582133 -28.101568 -800 0 -800 0 -800 0 
	-800 0 -6.6856402 -117.89864 -800 0 -800 0 
	-800 0 
	-800 0 -7.3144425 -64.203492 -800 0 -800 0 
	-800 0 -800 0 -0.96448373 -154.40662 -800 0 
	-800 0 
	-800 0 -800 0 -800 0 -1.8771143 -36.680102 
	-800 0 -800 0 -800 0 -4.5810824 -126.54183 
	-800 0 
	-800 0 -800 0 -800 0 -800 0 
	-0.0087854487 -2.1279109 -800 0 -800 0 -800 0 
	-30.281432 -91.511627 
130 -6.1516812 -120.3027 -800 0 -800 0 -800 0 
	-800 0 -1.2175147 -30.062935 -800 0 -800 0 
	-800 0 
	-800 0 -0.83403084 -158.12383 -800 0 -800 0 
	-800 0 -800 0 -7.9832266 -66.177511 -800 0 
	-800 0 
	-800 0 -800 0 0 -0 -800 0 
	-800 0 -800 0 -800 0 -800 0 
	-800 0 
	-800 0 -800 0 -800 0 -4.145077 -129.30162 
	-800 0 -800 0 -800 0 -2.1335135 -38.922061 
	-800 0 
	-800 0 -800 0 -800 0 -800 0 
	-29.566383 -91.181352 -800 0 -800 0 -800 0 
	-0.009521154 -2.3051159 
	-1.2175147 -30.062935 -800 0 -800 0 -800 0 
	-800 0 -6.1507918 -119.85016 -800 0 -800 0 
	-800 0 
	-800 0 -7.9832266 -66.177511 -800 0 -800 0 
	-800 0 -800 0 -0.82541822 -156.41299 -800 0 
	-800 0 
	-800 0 -800 0 -800 0 -2.1335135 -38.922061 
	-800 0 -800 0 -800 0 -4.1427545 -128.77532 
	-800 0 
	-800 0 -800 0 -800 0 -800 0 
	-0.009521154 -2.3051159 -800 0 -800 0 -800 0 
	-29.58693 -91.784799 
140 -5.6748205 -122.21705 -800 0 -800 0 -800 0 
	-800 0 -1.3831533 -31.952875 -800 0 -800 0 
	-800 0 
	-800 0 -0.72069786 -160.04673 -800 0 -800 0 
	-800 0 -800 0 -8.6368969 -67.931788 -800 0 
	-800 0 
	-800 0 -800 0 0 -0 -800 0 
	-800 0 -800 0 -800 0 -800 0 
	-800 0 
	-800 0 -800 0 -800 0 -3.762793 -131.44708 
	-800 0 -800 0 -800 0 -2.3943486 -41.035774 
	-800 0 
	-800 0 -800 0 -800 0 -800 0 
	-28.923462 -91.397419 -800 0 -800 0 -800 0 
	-0.010313418 -2.4822968 
	-1.3831533 -31.952875 -800 0 -800 0 -800 0 
	-800 0 -5.6739186 -121.72976 -800 0 -800 0 
	-800 0 
	-800 0 -8.6368969 -67.931788 -800 0 -800 0 
	-800 0 -800 0 -0.71204557 -158.20345 -800 0 
	-800 0 
	-800 0 -800 0 -800 0 -2.3943486 -41.035774 
	-800 0 -800 0 -800 0 -3.7604538 -130.88034 
	-800 0 
	-800 0 -800 0 -800 0 -800 0 
	-0.010313418 -2.4822968 -800 0 -800 0 -800 0 
	-28.944008 -92.047593 
150 -5.2478841 -124.05976 -800 0 -800 0 -800 0 
	-800 0 -1.554198 -33.771575 -800 0 -800 0 
	-800 0 
	-800 0 -0.62730611 -161.78766 -800 0 -800 0 
	-800 0 -800 0 -9.2772788 -69.499528 -800 0 
	-800 0 
	-800 0 -800 0 0 -0 -800 0 
	-800 0 -800 0 -800 0 -800 0 
	-800 0 
	-800 0 -800 0 -800 0 -3.4278122 -133.4699 
	-800 0 -800 0 -800 0 -2.658015 -43.027017 
	-800 0 
	-800 0 -800 0 -800 0 -800 0 
	-28.325009 -91.605195 -800 0 -800 0 -800 0 
	-0.011162226 -2.6594518 
	-1.554198 -33.771575 -800 0 -800 0 -800 0 
	-800 0 -5.2469702 -123.53772 -800 0 -800 0 
	-800 0 
	-800 0 -9.2772788 -69.499528 -800 0 -800 0 
	-800 0 -800 0 -0.61861259 -159.81174 -800 0 
	-800 0 
	-800 0 -800 0 -800 0 -2.658015 -43.027017 
	-800 0 -800 0 -800 0 -3.4254566 -132.86271 
	-800 0 
	-800 0 -800 0 -800 0 -800 0 
	-0.011162226 -2.6594518 -800 0 -800 0 -800 0 
	-28.345554 -92.302078 
160 -4.8642612 -125.83163 -800 0 -800 0 -800 0 
	-800 0 -1.7297772 -35.519765 -800 0 -800 0 
	-800 0 
	-800 0 -0.54960026 -163.37414 -800 0 -800 0 
	-800 0 -800 0 -9.906374 -70.907657 -800 0 
	-800 0 
	-800 0 -800 0 0 -0 -800 0 
	-800 0 -800 0 -800 0 -800 0 
	-800 0 
	-800 0 -800 0 -800 0 -3.133023 -135.37639 
	-800 0 -800 0 -800 0 -2.9231403 -44.902062 
	-800 0 
	-800 0 -800 0 -800 0 -800 0 
	-27.76529 -91.806225 -800 0 -800 0 -800 0 
	-0.012067562 -2.8365791 
	-1.7297772 -35.519765 -800 0 -800 0 -800 0 
	-800 0 -4.8633358 -125.27484 -800 0 -800 0 
	-800 0 
	-800 0 -9.906374 -70.907657 -800 0 -800 0 
	-800 0 -800 0 -0.54086387 -161.26535 -800 0 
	-800 0 
	-800 0 -800 0 -800 0 -2.9231403 -44.902062 
	-800 0 -800 0 -800 0 -3.1306509 -134.72874 
	-800 0 
	-800 0 -800 0 -800 0 -800 0 
	-0.012067562 -2.8365791 -800 0 -800 0 -800 0 
	-27.785834 -92.549801 
170 -4.5184499 -127.53391 -800 0 -800 0 -800 0 
	-800 0 -1.9090831 -37.198622 -800 0 -800 0 
	-800 0 
	-800 0 -0.48438646 -164.82874 -800 0 -800 0 
	-800 0 -800 0 -10.526268 -72.178059 -800 0 
	-800 0 
	-800 0 -800 0 0 -0 -800 0 
	-800 0 -800 0 -800 0 -800 0 
	-800 0 
	-800 0 -800 0 -800 0 -2.8725709 -137.17308 
	-800 0 -800 0 -800 0 -3.1885644 -46.667426 
	-800 0 
	-800 0 -800 0 -800 0 -800 0 
	-27.239614 -92.001693 -800 0 -800 0 -800 0 
	-0.013029403 -3.0136771 
	-1.9090831 -37.198622 -800 0 -800 0 -800 0 
	-800 0 -4.5175132 -126.94236 -800 0 -800 0 
	-800 0 
	-800 0 -10.526268 -72.178059 -800 0 -800 0 
	-800 0 -800 0 -0.47560554 -162.58685 -800 0 
	-800 0 
	-800 0 -800 0 -800 0 -3.1885644 -46.667426 
	-800 0 -800 0 -800 0 -2.8701825 -136.48496 
	-800 0 
	-800 0 -800 0 -800 0 -800 0 
	-0.013029403 -3.0136771 -800 0 -800 0 -800 0 
	-27.260156 -92.791947 
180 -4.2058199 -129.16818 -800 0 -800 0 -800 0 
	-800 0 -2.0913741 -38.809693 -800 0 -800 0 
	-800 0 
	-800 0 -0.42923501 -166.17004 -800 0 -800 0 
	-800 0 -800 0 -11.139078 -73.328568 -800 0 
	-800 0 
	-800 0 -800 0 0 -0 -800 0 
	-800 0 -800 0 -800 0 -800 0 
	-800 0 
	-800 0 -800 0 -800 0 -2.6415982 -138.86658 
	-800 0 -800 0 -800 0 -3.4533182 -48.329685 
	-800 0 
	-800 0 -800 0 -800 0 -800 0 
	-26.744094 -92.192518 -800 0 -800 0 -800 0 
	-0.014047724 -3.1907438 
	-2.0913741 -38.809693 -800 0 -800 0 -800 0 
	-800 0 -4.2048722 -128.54186 -800 0 -800 0 
	-800 0 
	-800 0 -11.139078 -73.328568 -800 0 -800 0 
	-800 0 -800 0 -0.42040784 -163.79481 -800 0 
	-800 0 
	-800 0 -800 0 -800 0 -3.4533182 -48.329685 
	-800 0 -800 0 -800 0 -2.6391934 -138.13797 
	-800 0 
	-800 0 -800 0 -800 0 -800 0 
	-0.014047724 -3.1907438 -800 0 -800 0 -800 0 
	-26.764635 -93.029439 
190 -3.9224383 -130.73631 -800 0 -800 0 -800 0 
	-800 0 -2.2759747 -40.354812 -800 0 -800 0 
	-800 0 
	-800 0 -0.38227433 -167.41347 -800 0 -800 0 
	-800 0 -800 0 -11.746935 -74.373729 -800 0 
	-800 0 
	-800 0 -800 0 0 -0 -800 0 
	-800 0 -800 0 -800 0 -800 0 
	-800 0 
	-800 0 -800 0 -800 0 -2.436047 -140.46338 
	-800 0 -800 0 -800 0 -3.7166011 -49.89533 
	-800 0 
	-800 0 -800 0 -800 0 -800 0 
	-26.275474 -92.379424 -800 0 -800 0 -800 0 
	-0.015122496 -3.3677776 
	-2.2759747 -40.354812 -800 0 -800 0 -800 0 
	-800 0 -3.92148 -130.07522 -800 0 -800 0 
	-800 0 
	-800 0 -11.746935 -74.373729 -800 0 -800 0 
	-800 0 -800 0 -0.37339916 -164.90462 -800 0 
	-800 0 
	-800 0 -800 0 -800 0 -3.7166011 -49.89533 
	-800 0 -800 0 -800 0 -2.4336259 -139.69428 
	-800 0 
	-800 0 -800 0 -800 0 -800 0 
	-0.015122496 -3.3677776 -800 0 -800 0 -800 0 
	-26.296014 -93.263003 
200 -3.6649392 -132.24038 -800 0 -800 0 -800 0 
	-800 0 -2.4622744 -41.836033 -800 0 -800 0 
	-800 0 
	-800 0 -0.34204604 -168.57188 -800 0 -800 0 
	-800 0 -800 0 -12.35198 -75.325405 -800 0 
	-800 0 
	-800 0 -800 0 0 -0 -800 0 
	-800 0 -800 0 -800 0 -800 0 
	-800 0 
	-800 0 -800 0 -800 0 -2.2525079 -141.96981 
	-800 0 -800 0 -800 0 -3.9777594 -51.370663 
	-800 0 
	-800 0 -800 0 -800 0 -800 0 
	-25.831001 -92.562992 -800 0 -800 0 -800 0 
	-0.016253688 -3.5447767 
	-2.4622744 -41.836033 -800 0 -800 0 -800 0 
	-800 0 -3.6639704 -131.54452 -800 0 -800 0 
	-800 0 
	-800 0 -12.35198 -75.325405 -800 0 -800 0 
	-800 0 -800 0 -0.33312108 -165.92913 -800 0 
	-800 0 
	-800 0 -800 0 -800 0 -3.9777594 -51.370663 
	-800 0 -800 0 -800 0 -2.2500704 -141.16021 
	-800 0 
	-800 0 -800 0 -800 0 -800 0 
	-0.016253688 -3.5447767 -800 0 -800 0 -800 0 
	-25.851539 -93.493221 
210 -3.4304223 -133.68263 -800 0 -800 0 -800 0 
	-800 0 -2.6497253 -43.255568 -800 0 -800 0 
	-800 0 
	-800 0 -0.30740153 -169.65605 -800 0 -800 0 
	-800 0 -800 0 -12.956371 -76.193232 -800 0 
	-800 0 
	-800 0 -800 0 0 -0 -800 0 
	-800 0 -800 0 -800 0 -800 0 
	-800 0 
	-800 0 -800 0 -800 0 -2.088102 -143.39192 
	-800 0 -800 0 -800 0 -4.2362664 -52.761732 
	-800 0 
	-800 0 -800 0 -800 0 -800 0 
	-25.408323 -92.743692 -800 0 -800 0 -800 0 
	-0.017441265 -3.7217392 
	-2.6497253 -43.255568 -800 0 -800 0 -800 0 
	-800 0 -3.4294434 -132.95199 -800 0 -800 0 
	-800 0 
	-800 0 -12.956371 -76.193232 -800 0 -800 0 
	-800 0 -800 0 -0.29842495 -166.87911 -800 0 
	-800 0 
	-800 0 -800 0 -800 0 -4.2362664 -52.761732 
	-800 0 -800 0 -800 0 -2.0856481 -142.5418 
	-800 0 
	-800 0 -800 0 -800 0 -800 0 
	-0.017441265 -3.7217392 -800 0 -800 0 -800 0 
	-25.428859 -93.720563 
220 -3.2163756 -135.0654 -800 0 -800 0 -800 0 
	-800 0 -2.8378388 -44.615737 -800 0 -800 0 
	-800 0 
	-800 0 -0.27742722 -170.67509 -800 0 -800 0 
	-800 0 -800 0 -13.562306 -76.984975 -800 0 
	-800 0 
	-800 0 -800 0 0 -0 -800 0 
	-800 0 -800 0 -800 0 -800 0 
	-800 0 
	-800 0 -800 0 -800 0 -1.940387 -144.73546 
	-800 0 -800 0 -800 0 -4.4917034 -54.074282 
	-800 0 
	-800 0 -800 0 -800 0 -800 0 
	-25.005416 -92.921907 -800 0 -800 0 -800 0 
	-0.018685189 -3.8986634 
	-2.8378388 -44.615737 -800 0 -800 0 -800 0 
	-800 0 -3.2153867 -134.29996 -800 0 -800 0 
	-800 0 
	-800 0 -13.562306 -76.984975 -800 0 -800 0 
	-800 0 -800 0 -0.26839717 -167.76365 -800 0 
	-800 0 
	-800 0 -800 0 -800 0 -4.4917034 -54.074282 
	-800 0 -800 0 -800 0 -1.9379166 -143.84481 
	-800 0 
	-800 0 -800 0 -800 0 -800 0 
	-0.018685189 -3.8986634 -800 0 -800 0 -800 0 
	-25.025951 -93.945415 
230 -3.0206124 -136.39109 -800 0 -800 0 -800 0 
	-800 0 -3.0261818 -45.918922 -800 0 -800 0 
	-800 0 
	-800 0 -0.25138974 -171.63672 -800 0 -800 0 
	-800 0 -800 0 -14.172043 -77.706787 -800 0 
	-800 0 
	-800 0 -800 0 0 -0 -800 0 
	-800 0 -800 0 -800 0 -800 0 
	-800 0 
	-800 0 -800 0 -800 0 -1.8072824 -146.00587 
	-800 0 -800 0 -800 0 -4.7437436 -55.313731 
	-800 0 
	-800 0 -800 0 -800 0 -800 0 
	-24.620528 -93.097954 -800 0 -800 0 -800 0 
	-0.01998542 -4.0755474 
	-3.0261818 -45.918922 -800 0 -800 0 -800 0 
	-800 0 -3.0196137 -135.59085 -800 0 -800 0 
	-800 0 
	-800 0 -14.172043 -77.706787 -800 0 -800 0 
	-800 0 -800 0 -0.24230432 -168.59045 -800 0 
	-800 0 
	-800 0 -800 0 -800 0 -4.7437436 -55.313731 
	-800 0 -800 0 -800 0 -1.8047955 -145.07467 
	-800 0 
	-800 0 -800 0 -800 0 -800 0 
	-0.01998542 -4.0755474 -800 0 -800 0 -800 0 
	-24.641061 -94.168092 
240 -2.8412214 -137.66211 -800 0 -800 0 -800 0 
	-800 0 -3.2143726 -47.167531 -800 0 -800 0 
	-800 0 
	-800 0 -0.22869536 -172.54754 -800 0 -800 0 
	-800 0 -800 0 -14.78794 -78.363403 -800 0 
	-800 0 
	-800 0 -800 0 0 -0 -800 0 
	-800 0 -800 0 -800 0 -800 0 
	-800 0 
	-800 0 -800 0 -800 0 -1.6870091 -147.20822 
	-800 0 -800 0 -800 0 -4.9921375 -56.48516 
	-800 0 
	-800 0 -800 0 -800 0 -800 0 
	-24.252129 -93.272096 -800 0 -800 0 -800 0 
	-0.021341916 -4.2523896 
	-3.2143726 -47.167531 -800 0 -800 0 -800 0 
	-800 0 -2.8402132 -136.82706 -800 0 -800 0 
	-800 0 
	-800 0 -14.78794 -78.363403 -800 0 -800 0 
	-800 0 -800 0 -0.21955265 -169.3661 -800 0 
	-800 0 
	-800 0 -800 0 -800 0 -4.9921375 -56.48516 
	-800 0 -800 0 -800 0 -1.6845055 -146.23646 
	-800 0 
	-800 0 -800 0 -800 0 -800 0 
	-0.021341916 -4.2523896 -800 0 -800 0 -800 0 
	-24.272661 -94.388861 
250 -2.6765262 -138.88087 -800 0 -800 0 -800 0 
	-800 0 -3.4020769 -48.363967 -800 0 -800 0 
	-800 0 
	-800 0 -0.20885958 -173.4132 -800 0 -800 0 
	-800 0 -800 0 -15.412486 -78.958261 -800 0 
	-800 0 
	-800 0 -800 0 0 -0 -800 0 
	-800 0 -800 0 -800 0 -800 0 
	-800 0 
	-800 0 -800 0 -800 0 -1.5780401 -148.34728 
	-800 0 -800 0 -800 0 -5.2367002 -57.593313 
	-800 0 
	-800 0 -800 0 -800 0 -800 0 
	-23.898877 -93.444556 -800 0 -800 0 -800 0 
	-0.022754631 -4.4291879 
	-3.4020769 -48.363967 -800 0 -800 0 -800 0 
	-800 0 -2.6755087 -138.01102 -800 0 -800 0 
	-800 0 
	-800 0 -15.412486 -78.958261 -800 0 -800 0 
	-800 0 -800 0 -0.19965764 -170.09622 -800 0 
	-800 0 
	-800 0 -800 0 -800 0 -5.2367002 -57.593313 
	-800 0 -800 0 -800 0 -1.5755197 -147.33493 
	-800 0 
	-800 0 -800 0 -800 0 -800 0 
	-0.022754631 -4.4291879 -800 0 -800 0 -800 0 
	-23.919408 -94.607942 
260 -2.5250516 -140.04978 -800 0 -800 0 -800 0 
	-800 0 -3.5890036 -49.510606 -800 0 -800 0 
	-800 0 
	-800 0 -0.19148411 -174.23857 -800 0 -800 0 
	-800 0 -800 0 -16.048359 -79.493563 -800 0 
	-800 0 
	-800 0 -800 0 0 -0 -800 0 
	-800 0 -800 0 -800 0 -800 0 
	-800 0 
	-800 0 -800 0 -800 0 -1.4790602 -149.42744 
	-800 0 -800 0 -800 0 -5.4773007 -58.642601 
	-800 0 
	-800 0 -800 0 -800 0 -800 0 
	-23.559589 -93.615521 -800 0 -800 0 -800 0 
	-0.024223517 -4.6059407 
	-3.5890036 -49.510606 -800 0 -800 0 -800 0 
	-800 0 -2.5240248 -139.1451 -800 0 -800 0 
	-800 0 
	-800 0 -16.048359 -79.493563 -800 0 -800 0 
	-800 0 -800 0 -0.18222096 -170.78569 -800 0 
	-800 0 
	-800 0 -800 0 -800 0 -5.4773007 -58.642601 
	-800 0 -800 0 -800 0 -1.4765229 -148.37449 
	-800 0 
	-800 0 -800 0 -800 0 -800 0 
	-0.024223517 -4.6059407 -800 0 -800 0 -800 0 
	-23.580118 -94.825524 
270 -2.3854954 -141.17115 -800 0 -800 0 -800 0 
	-800 0 -3.7749006 -50.609777 -800 0 -800 0 
	-800 0 
	-800 0 -0.17623928 -175.02789 -800 0 -800 0 
	-800 0 -800 0 -16.698476 -79.970286 -800 0 
	-800 0 
	-800 0 -800 0 0 -0 -800 0 
	-800 0 -800 0 -800 0 -800 0 
	-800 0 
	-800 0 -800 0 -800 0 -1.3889329 -150.45282 
	-800 0 -800 0 -800 0 -5.7138528 -59.637118 
	-800 0 
	-800 0 -800 0 -800 0 -800 0 
	-23.233214 -93.785149 -800 0 -800 0 -800 0 
	-0.025748525 -4.7826462 
	-3.7749006 -50.609777 -800 0 -800 0 -800 0 
	-800 0 -2.3844596 -140.23164 -800 0 -800 0 
	-800 0 
	-800 0 -16.698476 -79.970286 -800 0 -800 0 
	-800 0 -800 0 -0.16691292 -171.4387 -800 0 
	-800 0 
	-800 0 -800 0 -800 0 -5.7138528 -59.637118 
	-800 0 -800 0 -800 0 -1.3863786 -149.35925 
	-800 0 
	-800 0 -800 0 -800 0 -800 0 
	-0.025748525 -4.7826462 -800 0 -800 0 -800 0 
	-23.253742 -95.041765 
280 -2.2567053 -142.24728 -800 0 -800 0 -800 0 
	-800 0 -3.9595509 -51.663747 -800 0 -800 0 
	-800 0 
	-800 0 -0.16285042 -175.78481 -800 0 -800 0 
	-800 0 -800 0 -17.366075 -80.388111 -800 0 
	-800 0 
	-800 0 -800 0 0 -0 -800 0 
	-800 0 -800 0 -800 0 -800 0 
	-800 0 
	-800 0 -800 0 -800 0 -1.3066731 -151.4272 
	-800 0 -800 0 -800 0 -5.9463067 -60.580655 
	-800 0 
	-800 0 -800 0 -800 0 -800 0 
	-22.918817 -93.953576 -800 0 -800 0 -800 0 
	-0.027329601 -4.9593025 
	-3.9595509 -51.663747 -800 0 -800 0 -800 0 
	-800 0 -2.2556606 -141.27291 -800 0 -800 0 
	-800 0 
	-800 0 -17.366075 -80.388111 -800 0 -800 0 
	-800 0 -800 0 -0.15345883 -172.05893 -800 0 
	-800 0 
	-800 0 -800 0 -800 0 -5.9463067 -60.580655 
	-800 0 -800 0 -800 0 -1.3041016 -150.293 
	-800 0 
	-800 0 -800 0 -800 0 -800 0 
	-0.027329601 -4.9593025 -800 0 -800 0 -800 0 
	-22.939344 -95.256803 
290 -2.1376592 -143.28035 -800 0 -800 0 -800 0 
	-800 0 -4.1427692 -52.674712 -800 0 -800 0 
	-800 0 
	-800 0 -0.15108737 -176.51257 -800 0 -800 0 
	-800 0 -800 0 -18.054803 -80.745283 -800 0 
	-800 0 
	-800 0 -800 0 0 -0 -800 0 
	-800 0 -800 0 -800 0 -800 0 
	-800 0 
	-800 0 -800 0 -800 0 -1.2314241 -152.35409 
	-800 0 -800 0 -800 0 -6.1746427 -61.476717 
	-800 0 
	-800 0 -800 0 -800 0 -800 0 
	-22.615561 -94.12092 -800 0 -800 0 -800 0 
	-0.028966692 -5.1359078 
	-4.1427692 -52.674712 -800 0 -800 0 -800 0 
	-800 0 -2.1366057 -142.27113 -800 0 -800 0 
	-800 0 
	-800 0 -18.054803 -80.745283 -800 0 -800 0 
	-800 0 -800 0 -0.14162849 -172.64955 -800 0 
	-800 0 
	-800 0 -800 0 -800 0 -6.1746427 -61.476717 
	-800 0 -800 0 -800 0 -1.2288353 -151.17923 
	-800 0 
	-800 0 -800 0 -800 0 -800 0 
	-0.028966692 -5.1359078 -800 0 -800 0 -800 0 
	-22.636086 -95.470753 
300 -2.0274481 -144.27248 -800 0 -800 0 -800 0 
	-800 0 -4.3243984 -53.644788 -800 0 -800 0 
	-800 0 
	-800 0 -0.14075612 -177.21396 -800 0 -800 0 
	-800 0 -800 0 -18.768834 -81.038361 -800 0 
	-800 0 
	-800 0 -800 0 0 -0 -800 0 
	-800 0 -800 0 -800 0 -800 0 
	-800 0 
	-800 0 -800 0 -800 0 -1.162439 -153.23674 
	-800 0 -800 0 -800 0 -6.3988656 -62.328543 
	-800 0 
	-800 0 -800 0 -800 0 -800 0 
	-22.322694 -94.287281 -800 0 -800 0 -800 0 
	-0.030659739 -5.3124603 
	-4.3243984 -53.644788 -800 0 -800 0 -800 0 
	-800 0 -2.0263859 -143.2284 -800 0 -800 0 
	-800 0 
	-800 0 -18.768834 -81.038361 -800 0 -800 0 
	-800 0 -800 0 -0.13122787 -173.21338 -800 0 
	-800 0 
	-800 0 -800 0 -800 0 -6.3988656 -62.328543 
	-800 0 -800 0 -800 0 -1.1598326 -152.0212 
	-800 0 
	-800 0 -800 0 -800 0 -800 0 
	-0.030659739 -5.3124603 -800 0 -800 0 -800 0 
	-22.343218 -95.683719 
310 -1.9252621 -145.22573 -800 0 -800 0 -800 0 
	-800 0 -4.5043063 -54.576006 -800 0 -800 0 
	-800 0 
	-800 0 -0.1316923 -177.89149 -800 0 -800 0 
	-800 0 -800 0 -19.513033 -81.261827 -800 0 