! Touchstone file exported from HFSS 3D Layout Design 2018.2.0
!        File:           C:/Users/wfinley/Desktop/CG2H40120/HFSS/440293_EM.aedt
!        Generated:      2:30:53 PM  Jun 17, 2019
!        Design:         440193_EM2
!        Project:        440293_EM
!        Setup:          HFSS Setup 1
!        Solution:       Sweep 1
!
# GHZ S MA R 50.000000
! Terminal data exported
! Port[1] = Port11
! Port[2] = Port12
0                1.76362526698726E-05 0                0.99998203934843 0                0.999982039348431 0                1.72901498265952E-05 0                
! Gamma         5E-06            0                0                0                0                0                8.83647985069828E-05 0                
! Port Impedance50               0                0                0                0                0                50               0                

0.0001           6.68188030041104E-05 -74.7004649765677 0.999982037273909 -0.00453274432454644 0.99998203727386 -0.0045327443410604 6.6729734658114E-05 -74.9874433370947 
! Gamma         0                0.00209584502195168 0                0                0                0                0.000451081105093305 0.00409270832915635 
! Port Impedance50               0                0                0                0                0                50               0                

0.001            0.000663120922024453 -88.2229204567622 0.999973114655031 -0.0427063596741813 0.999973114655025 -0.0427063596663297 0.000663119636089131 -88.2695166072833 
! Gamma         0                0.0209584502195168 0                0                0                0                0.00175595021172186 0.0370604214858802 
! Port Impedance50               0                0                0                0                0                50               0                

0.01             0.00662390579830472 -90.349247918583 0.999911368003791 -0.421913834070577 0.999911368003793 -0.421913834071469 0.00662388898494801 -90.3997343229098 
! Gamma         -3.00926553810506E-36 0.209584502195168 0                0                0                0                0.00640568059088972 0.356938921899451 
! Port Impedance50               0                0                0                0                0                50               0                

0.02             0.0139890640397262 -92.2162112852228 0.999589885043191 -0.875062876191717 0.999589885043194 -0.875062876192676 0.013295155501472 -89.2015319640121 
! Gamma         -6.54696465166601E-37 0.419169004390336 0                0                0                0                0.0101754154432171 0.710442709724794 
! Port Impedance50               0                0                0                0                0                50               0                

0.04             0.0266675938572996 -92.1435648177088 0.999359306598143 -1.69164183328927 0.999359306598145 -1.691641833289  0.0265565016321392 -91.6189734359826 
! Gamma         -7.77452052385339E-38 0.838338008780673 0                0                0                0                0.0149194866730877 1.41360905977012 
! Port Impedance50               0                0                0                0                0                50               0                

0.06             0.0395168787013961 -92.490610413365 0.998999026308067 -2.51146832511038 0.998999026308068 -2.51146832511039 0.0395148418110851 -92.8512683510193 
! Gamma         1.06229408810101E-38 1.25750701317101 0                0                0                0                0.0180824781435722 2.1161287604784  
! Port Impedance50               0                0                0                0                0                50               0                

0.08             0.0525816294079884 -93.2373927235938 0.998376550830289 -3.34143266515573 0.998376550830288 -3.34143266515591 0.052545518746543 -93.7314444320026 
! Gamma         1.97285765172971E-38 1.67667601756135 0                0                0                0                0.0213107560476222 2.8181820905968  
! Port Impedance50               0                0                0                0                0                50               0                

0.1              0.0657539227026289 -94.1576390209601 0.997451187470996 -4.17961529368423 0.997451187470995 -4.17961529368417 0.0657482623064543 -94.6037159123678 
! Gamma         0                2.09584502195168 0                0                0                0                0.0250566505992452 3.51933026001391 
! Port Impedance50               0                0                0                0                0                50               0                

0.12             0.0787997266089658 -95.0187858043758 0.996321664034847 -5.0098808322973 0.996321664034848 -5.00988083229729 0.0787645511623139 -95.5707877710969 
! Gamma         0                2.51501402634202 0                0                0                0                0.0285563818354715 4.22105854810863 
! Port Impedance50               0                0                0                0                0                50               0                

0.14             0.0917730331736841 -95.8319209490758 0.995078452868334 -5.83672450697825 0.995078452868335 -5.83672450697822 0.0917227729371701 -96.4725948547923 
! Gamma         0                2.93418303073235 0                0                0                0                0.0319661454484042 4.92223541197933 
! Port Impedance50               0                0                0                0                0                50               0                

0.16             0.104684682790812 -96.6213676655256 0.993703459290499 -6.6609457302335 0.993703459290502 -6.66094573023346 0.10462765242231 -97.3468089891262 
! Gamma         0                3.35335203512269 0                0                0                0                0.0352106077222497 5.62300145251637 
! Port Impedance50               0                0                0                0                0                50               0                

0.18             0.117535907336745 -97.3984948227633 0.992186525661409 -7.48272991508335 0.99218652566141 -7.48272991508331 0.117476602274895 -98.2082913930451 
! Gamma         0                3.77252103951303 0                0                0                0                0.0382623342710732 6.32348041561985 
! Port Impedance50               0                0                0                0                0                50               0                

0.2              0.130323795777156 -98.1686921390382 0.990522372069088 -8.30200963729668 0.99052237206909 -8.30200963729663 0.13026452625746 -99.0632455124823 
! Gamma         0                4.19169004390337 0                0                0                0                0.0411232726793317 7.02377247883776 
! Port Impedance50               0                0                0                0                0                50               0                

0.22             0.143043645645906 -98.934505586522 0.988708723448006 -9.11861050004705 0.988708723448007 -9.11861050004699 0.142985490313633 -99.9142895536715 
! Gamma         0                4.6108590482937  0                0                0                0                0.0438109575942304 7.72395474050367 
! Port Impedance50               0                0                0                0                0                50               0                

0.24             0.155690015419125 -99.6970857864308 0.986745211623903 -9.93231341364386 0.986745211623906 -9.93231341364381 0.155633356218229 -100.762459773616 
! Gamma         0                5.03002805268404 0                0                0                0                0.0463495256015845 8.42408476839485 
! Port Impedance50               0                0                0                0                0                50               0                

0.26             0.168257216319765 -100.456880778042 0.984632728481906 -10.7428825264295 0.984632728481908 -10.7428825264294 0.168202039129761 -101.608063781733 
! Gamma         0                5.44919705707437 0                0                0                0                0.0487644364468534 9.12420486053539 
! Port Impedance50               0                0                0                0                0                50               0                

0.28             0.180739552377244 -101.213978977608 0.982373035880353 -11.5500782987797 0.982373035880355 -11.5500782987796 0.180685618753902 -102.451066137852 
! Gamma         0                5.86836606146471 0                0                0                0                0.0510796795773633 9.82434594300608 
! Port Impedance50               0                0                0                0                0                50               0                

0.3              0.193131442828165 -101.968284295027 0.979968522752214 -12.3536638582124 0.979968522752216 -12.3536638582124 0.193078390235442 -103.291270731341 
! Gamma         0                6.28753506585505 0                0                0                0                0.0533165035420088 10.5245307449353 
! Port Impedance50               0                0                0                0                0                50               0                

0.32             0.205427487380927 -102.719607913034 0.97742204815167 -13.153408197949 0.977422048151671 -13.153408197949 0.205374889061683 -104.128410003178 
! Gamma         0                6.70670407024538 0                0                0                0                0.0554930130076113 11.2247762288478 
! Port Impedance50               0                0                0                0                0                50               0                

0.34             0.21762250267391 -103.467717386541 0.974736835622438 -13.9490878434075 0.97473683562244 -13.9490878434075 0.217569904261349 -104.96218957918 
! Gamma         0                7.12587307463572 0                0                0                0                0.057624223799695 11.9250953838145 
! Port Impedance50               0                0                0                0                0                50               0                

0.36             0.229711543624686 -104.212363286026 0.971916398944146 -14.7404877532888 0.971916398944149 -14.7404877532887 0.229658486042925 -105.792310817575 
! Gamma         0                7.54504207902606 0                0                0                0                0.0597223348891401 12.6254985182218 
! Port Impedance50               0                0                0                0                0                50               0                

0.38             0.241689916481089 -104.953293753372 0.96896448752555 -15.5274018272485 0.968964487525551 -15.5274018272485 0.24163595056225 -106.618482128051 
! Gamma         0                7.96421108341639 0                0                0                0                0.0617970826341147 13.3259941775381 
! Port Impedance50               0                0                0                0                0                50               0                

0.4              0.253553187042138 -105.69026243002 0.965885044398942 -16.3096332044932 0.965885044398943 -16.3096332044932 0.253497882999115 -107.440424477878 
! Gamma         0                8.38338008780673 0                0                0                0                0.063856106232144 14.0265897885796 
! Port Impedance50               0                0                0                0                0                50               0                

0.42             0.265297185850878 -106.423032700071 0.96268217250116 -17.0869944459322 0.96268217250116 -17.0869944459322 0.265240139451551 -108.257873859848 
! Gamma         0                8.80254909219707 0                0                0                0                0.0659052898727491 14.7272921075095 
! Port Impedance50               0                0                0                0                0                50               0                

0.44             0.276918011312959 -107.151379865648 0.959360106552704 -17.8593076467457 0.959360106552705 -17.8593076467457 0.276858847858523 -109.070582173256 
! Gamma         0                9.2217180965874  0                0                0                0                0.0679490672589039 15.4281075283512 
! Port Impedance50               0                0                0                0                0                50               0                

0.46             0.288412031256376 -107.875092157662 0.955923188834639 -18.6264045030359 0.95592318883464 -18.6264045030358 0.288350408033474 -109.878317287881 
! Gamma         0                9.64088710097774 0                0                0                0                0.0699906848155651 16.129042292929  
! Port Impedance50               0                0                0                0                0                50               0                

0.48             0.299775883219193 -108.593971092456 0.952375847774782 -19.3881263444066 0.952375847774783 -19.3881263444066 0.299711490840502 -110.680862702407 
! Gamma         0                10.0600561053681 0                0                0                0                0.0720324251649806 16.8301026313884 
! Port Impedance50               0                0                0                0                0                50               0                

0.5              0.311006473633098 -109.30783146506 0.948722578639901 -20.144324138312 0.948722578639901 -20.144324138312 0.310939036529827 -111.478017016908 
! Gamma         0                10.4792251097584 0                0                0                0                0.074075794752313 17.5312948539373 
! Port Impedance50               0                0                0                0                0                50               0                

0.52             0.322100976009698 -110.016501145194 0.944967925876688 -20.8948584690342 0.944967925876689 -20.8948584690342 0.322030252249541 -112.269593335066 
! Gamma         0                10.8983941141487 0                0                0                0                0.0761216802449899 18.2326254083899 
! Port Impedance50               0                0                0                0                0                50               0                

0.54             0.333056828206294 -110.719820770614 0.94111646680325 -21.6395994927446 0.941116466803249 -21.6395994927446 0.33298260875722 -113.05541865523 
! Gamma         0                11.3175631185391 0                0                0                0                0.0781704782867651 18.934100913807  
! Port Impedance50               0                0                0                0                0                50               0                

0.56             0.343871728834209 -111.417643391115 0.937172796456277 -22.3784268695173 0.937172796456276 -22.3784268695173 0.343793836363302 -113.835333278562 
! Gamma         0                11.7367321229294 0                0                0                0                0.0802222027906672 19.6357281775104 
! Port Impedance50               0                0                0                0                0                50               0                

0.58             0.354543632867579 -112.109834092588 0.933141513466738 -23.1112296729946 0.933141513466736 -23.1112296729947 0.354461920146308 -114.60919024597 
! Gamma         0                12.1559011273198 0                0                0                0                0.0822765734307562 20.3375142006247 
! Port Impedance50               0                0                0                0                0                50               0                

0.6              0.36507074650962 -112.796269616671 0.929027206880919 -23.8379062784424 0.929027206880917 -23.8379062784424 0.364985094486995 -115.376854806824 
! Gamma         0                12.5750701317101 0                0                0                0                0.0843330884555604 21.0394661758055 
! Port Impedance50               0                0                0                0                0                50               0                

0.62             0.375451521374348 -113.476837983657 0.924834443872142 -24.558364230056 0.924834443872141 -24.558364230056 0.375361836974224 -116.138203918149 
! Gamma         0                12.9942391361004 0                0                0                0                0.0863910844494551 21.7415914797561 
! Port Impedance50               0                0                0                0                0                50               0                

0.64             0.385684648043373 -114.151438121875 0.920567758306367 -25.2725200885339 0.920567758306366 -25.2725200885339 0.385590861739561 -116.893125771067 
! Gamma         0                13.4134081404908 0                0                0                0                0.0884497852325492 22.4438976623887 
! Port Impedance50               0                0                0                0                0                50               0                

0.66             0.395769049058845 -114.819979504379 0.916231640135845 -25.9802992600846 0.916231640135844 -25.9802992600846 0.395671112280552 -117.641519340695 
! Gamma         0                13.8325771448811 0                0                0                0                0.0905083417187093 23.146392433951  
! Port Impedance50               0                0                0                0                0                50               0                

0.68             0.405703871414677 -115.48238179258 0.911830525601065 -26.6816358081638 0.911830525601063 -26.6816358081638 0.405601753834245 -118.383293955741 
! Gamma         0                14.2517461492714 0                0                0                0                0.092565864241074 23.849083651063  
! Port Impedance50               0                0                0                0                0                50               0                

0.7              0.415488478608639 -116.138574485952 0.907368788224194 -27.376472249347 0.907368788224193 -27.376472249347 0.415382165363188 -119.11836888446 
! Gamma         0                14.6709151536618 0                0                0                0                0.0946214485975666 24.5519793023304 
! Port Impedance50               0                0                0                0                0                50               0                

0.72             0.425122442317645 -116.788496576833 0.902850730578007 -28.0647593348182 0.902850730578005 -28.0647593348182 0.425011931215759 -119.846672934148 
! Gamma         0                15.0900841580521 0                0                0                0                0.0966741968574409 25.2550874940075 
! Port Impedance50               0                0                0                0                0                50               0                

0.74             0.434605533757724 -117.432096209378 0.898280576813736 -28.7464558190098 0.898280576813734 -28.7464558190098 0.43449083252159 -120.568144061883 
! Gamma         0                15.5092531624424 0                0                0                0                0.0987232337961734 25.958416436037  
! Port Impedance50               0                0                0                0                0                50               0                

0.76             0.443937714788681 -118.069330341955 0.893662465929879 -29.4215282169521 0.893662465929879 -29.4215282169521 0.443818838381024 -121.282728994763 
! Gamma         0                15.9284221668328 0                0                0                0                0.100767719683275 26.6619744286898 
! Port Impedance50               0                0                0                0                0                50               0                

0.78             0.453119128821433 -118.700164412419 0.88900044576215 -30.0899505518967 0.889000445762147 -30.0899505518967 0.452996096905222 -121.990382858302 
! Gamma         0                16.3475911712231 0                0                0                0                0.102806860030099 27.3657698499522 
! Port Impedance50               0                0                0                0                0                50               0                

0.8              0.462150091583605 -119.324572005973 0.884298467672634 -30.7517040947619 0.884298467672632 -30.7517040947619 0.462022926160741 -122.691068812083 
! Gamma         0                16.7667601756135 0                0                0                0                0.104839912807705 28.0698111437504 
! Port Impedance50               0                0                0                0                0                50               0                

0.82             0.471031081796062 -119.942534525444 0.879560381914253 -31.4067770969116 0.879560381914251 -31.4067770969116 0.47089980506924 -123.384757692042 
! Gamma         0                17.1859291800038 0                0                0                0                0.106866193564442 28.774106809061  
! Port Impedance50               0                0                0                0                0                50               0                

0.84             0.479762731810068 -120.554040864045 0.874789933644491 -32.0551645177382 0.874789933644489 -32.0551645177381 0.479627364309682 -124.071427659043 
! Gamma         0                17.6050981843941 0                0                0                0                0.108885078805968 29.4786653899267 
! Port Impedance50               0                0                0                0                0                50               0                

0.86             0.488345818251218 -121.159087080736 0.869990759560753 -32.6968677484512 0.86999075956075 -32.6968677484512 0.488206377266642 -124.75106385361 
! Gamma         0                18.0242671887845 0                0                0                0                0.110896007944482 30.1834954663746 
! Port Impedance50               0                0                0                0                0                50               0                

0.88             0.496781252713006 -121.757676078479 0.865166385128047 -33.3318943334142 0.865166385128046 -33.3318943334142 0.496637751064867 -125.42365805682 
! Gamma         0                18.4434361931748 0                0                0                0                0.112898484076881 30.8886056462147 
! Port Impedance50               0                0                0                0                0                50               0                

0.9              0.505070072539159 -122.349817285708 0.860320222368538 -33.9602576902877 0.860320222368536 -33.9602576902877 0.50492251772633 -126.089208357494 
! Gamma         0                18.8626051975651 0                0                0                0                0.114892073811963 31.5940045576912 
! Port Impedance50               0                0                0                0                0                50               0                

0.92             0.513213431730313 -122.935526341392 0.855455568181512 -34.58197683016  0.855455568181511 -34.5819768301599 0.513061825482398 -126.747718825893 
! Gamma         0                19.2817742019555 0                0                0                0                0.11687640633311 32.299700842945  
! Port Impedance50               0                0                0                0                0                50               0                

0.94             0.521212592006988 -123.514824784122 0.850575603161704 -35.1970760787579 0.850575603161703 -35.1970760787579 0.521056930270008 -127.399199194188 
! Gamma         0                19.7009432063458 0                0                0                0                0.118851171854379 33.0057031522439 
! Port Impedance50               0                0                0                0                0                50               0                

0.96             0.529068914057292 -124.087739745625 0.845683390883505 -35.8055847997456 0.845683390883505 -35.8055847997456 0.528909187437184 -128.043664543999 
! Gamma         0                20.1201122107361 0                0                0                0                0.120816119603527 33.7120201389341 
! Port Impedance50               0                0                0                0                0                50               0                

0.98             0.536783848994324 -124.654303649135 0.840781877618555 -36.4075371210271 0.840781877618555 -36.4075371210271 0.53662004367976 -128.681135001296 
! Gamma         0                20.5392812151265 0                0                0                0                0.122771055444665 34.4186604550629 
! Port Impedance50               0                0                0                0                0                50               0                

1                0.544358930044943 -125.214553913025 0.835873892454342 -37.002971664884 0.835873892454342 -37.002971664884 0.544191029227858 -129.311635438987 
! Gamma         0                20.9584502195168 0                0                0                0                0.124715839235382 35.125632747623  
! Port Impedance50               0                0                0                0                0                50               0                

1.02             0.551721347043654 -125.756625509344 0.830988483845938 -37.5885963110297 0.830988483845937 -37.5885963110297 0.551613512755792 -129.947280843819 
! Gamma         2.27967217043605E-34 21.3776192239072 0                0                0                0                0.126861513432902 35.8325529367375 
! Port Impedance50               0                0                0                0                0                50               0                

1.04             0.55894958889879 -126.293202768715 0.826099975376693 -38.1676566088072 0.826099975376693 -38.1676566088071 0.558896817562493 -130.575283847203 
! Gamma         4.41259686961478E-34 21.7967882282975 0                0                0                0                0.128989882618746 36.5397988572413 
! Port Impedance50               0                0                0                0                0                50               0                

1.06             0.566045085694394 -126.824275134911 0.821211059397574 -38.7401920427897 0.821211059397575 -38.7401920427897 0.566042548359068 -131.195702530051 
! Gamma         6.4093728351391E-34 22.2159572326878 0                0                0                0                0.131102031699617 37.2473759134368 
! Port Impedance50               0                0                0                0                0                50               0                

1.08             0.573009325883837 -127.349838355708 0.816324319421734 -39.3062448668998 0.816324319421734 -39.3062448668997 0.573052368643978 -131.808597417617 
! Gamma         8.27962293697685E-34 22.6351262370782 0                0                0                0                0.133199009549645 37.9552892939369 
! Port Impedance50               0                0                0                0                0                50               0                

1.1              0.579843850317028 -127.869893982375 0.811442231127921 -39.8658599169405 0.811442231127921 -39.8658599169405 0.579927994575675 -132.414031365604 
! Gamma         1.0032099523508E-33 23.0542952414685 0                0                0                0                0.135281827298999 38.6635439792457 
! Port Impedance50               0                0                0                0                0                50               0                

1.12             0.586550246586352 -128.384448906793 0.806567163627715 -40.4190844294421 0.806567163627715 -40.419084429442 0.58667118911705 -133.012069439636 
! Gamma         1.16747767142698E-33 23.4734642458588 0                0                0                0                0.13735145715703 39.372144748834  
! Port Impedance50               0                0                0                0                0                50               0                

1.14             0.593130143681149 -128.893514932612 0.80170138096818 -40.965967866907 0.801701380968181 -40.965967866907 0.593283756453127 -133.602778790002 
! Gamma         1.32149314548777E-33 23.8926332502492 0                0                0                0                0.139408831689988 40.0810961877352 
! Port Impedance50               0                0                0                0                0                50               0                

1.16             0.599585206940746 -129.397108377312 0.79684704384303 -41.506561749513 0.796847043843031 -41.5065617495129 0.599767536681837 -134.186228523265 
! Gamma         1.46592148703599E-33 24.3118022546395 0                0                0                0                0.141454843483113 40.7904026926877 
! Port Impedance50               0                0                0                0                0                50               0                

1.18             0.60591713329608 -129.895249702474 0.792006211486784 -42.0409194933016 0.792006211486785 -42.0409194933015 0.606124400776223 -134.762489572135 
! Gamma         1.60137152208209E-33 24.7309712590299 0                0                0                0                0.143490345125708 41.5000684778519 